ITEM: TIMESTEP
0
ITEM: NUMBER OF ATOMS
9000
ITEM: BOX BOUNDS pp ff pp
0.0000000000000000e+00 5.3225831169999999e+01
0.0000000000000000e+00 8.0759506000000002e+01
0.0000000000000000e+00 1.3987956760000000e+02
ITEM: ATOMS id
36057
36051
36045
36039
36033
36027
36021
36015
36009
36003
36119
36061
36059
36055
36053
36049
36047
36043
36041
36037
36035
36031
36029
36025
36023
36019
36017
36013
36011
36007
36005
36001
34919
34859
34857
34853
34851
34847
34845
34839
34841
34835
34833
34829
34827
34823
34821
34817
34815
34809
34811
34805
34803
34861
34855
33657
33651
34849
34843
33645
33639
34837
34831
34825
33621
34819
34813
33615
33609
34807
34801
33603
33719
33659
33653
33647
33623
33617
33611
33605
33661
33655
32457
32451
33649
7398
7404
7410
7416
7518
7524
7530
7536
7542
7548
8518
8519
8524
8525
8531
8530
8536
8537
8542
8543
8548
8549
8554
8555
8561
8638
8639
8644
8645
8647
8650
8651
8653
8657
8656
8659
8662
8663
8665
8668
8669
8671
8674
8675
8677
8680
8681
8687
8686
8692
8693
8699
8758
8759
8764
8765
8767
8770
8771
8773
8776
8777
8779
8783
8782
8785
8788
8789
8791
8794
8795
8797
8800
8801
8803
8806
8807
8809
8813
8812
8818
8819
8268
8274
8280
9529
9535
8286
9541
9547
8292
8298
9553
8304
8310
9559
9577
8382
9643
8388
8390
8391
8394
9649
8396
8397
8400
8402
8406
9655
9661
8403
8408
8409
8412
8414
9667
9673
8415
8418
8420
8421
8424
9679
8426
8427
8430
8432
8436
9685
9691
8433
8442
9697
8444
8448
8454
9703
9709
8502
9757
8505
8508
8510
9763
9769
8511
8514
8516
8517
8520
9775
8522
8523
8526
8528
8532
9781
9787
8529
8534
8535
8538
8540
9793
9799
8541
8544
8546
8547
8550
9805
8552
8553
8556
8558
8562
9811
9817
8559
8564
8565
8568
9823
8570
8571
8574
8580
9829
9835
9841
9877
8622
8625
8628
9883
8630
8631
8634
8636
9889
9895
8637
8640
8642
8643
8646
9901
8648
8649
8652
8654
8658
9907
9913
8655
8660
8661
8664
8666
9919
9925
8667
8670
8672
8673
8676
9931
8678
8679
8682
8684
8688
9937
9943
8685
8690
8691
8694
9949
8696
8697
8700
8702
8706
9955
9961
8703
8712
9967
10003
8745
8748
8750
8751
8754
10009
8756
8757
8760
8762
10015
10021
8763
8766
8768
8769
8772
10027
8774
8775
8778
8780
8784
10033
10039
8781
8786
8787
8790
8792
10045
10051
8793
8796
8798
8799
8802
10057
8804
8805
8808
8810
8814
10063
10069
8811
8816
8817
8820
10075
9398
9404
9410
9412
9416
9418
9422
9424
9428
9434
9440
9452
9512
9514
9518
9520
9521
9524
9526
9527
9530
9532
9533
9536
9539
9538
9542
9544
9545
9548
9550
9551
9554
9556
9557
9560
9562
9563
9566
9569
9568
9572
9574
9575
9578
9580
9581
9584
9590
9626
9632
9634
9635
9638
9640
9641
9644
9646
9647
9650
9652
9653
9656
9658
9659
9662
9665
9664
9668
9670
9671
9674
9676
9677
9680
9682
9683
9686
9688
9689
9692
9695
9694
9698
9700
9701
9704
9706
9707
9710
9713
9712
9716
9719
9722
9746
9752
9754
9755
9758
9760
9761
9764
9766
9767
9770
9772
9773
9776
9778
9779
9782
9784
9785
9788
9791
9790
9794
9796
9797
9800
9802
9803
9806
9808
9809
9812
9814
9815
9818
9821
9820
9824
9826
9827
9830
9832
9833
9836
9839
9838
9842
9844
9845
9848
9872
9874
9875
9878
9880
9881
9884
9886
9887
9890
9892
9893
9896
9898
9899
9902
9904
9905
9908
9910
9911
9914
9917
9916
9920
9922
9923
9926
9928
9929
9932
9934
9935
9938
9940
9941
9944
9947
9946
9950
9952
9953
9956
9958
9959
9962
9965
9964
9968
9970
9971
9974
9977
9980
9998
10000
10001
10004
10006
10007
10010
10012
10013
10016
10018
10019
10022
10024
10025
10028
10030
10031
10034
10036
10037
10040
10043
10042
10046
10048
10049
10052
10054
10055
10058
10060
10061
10064
10066
10067
10070
10073
10072
10076
10078
10079
10540
10546
10552
10558
10564
10570
10642
10648
9396
9402
10654
10657
10660
9405
9408
9414
10663
10666
10669
9411
9417
9420
10672
10675
10678
10681
9423
9426
9429
9432
10684
10687
10690
9435
9438
9444
10693
10696
10699
9450
10702
10705
10708
9456
9462
10711
10714
10717
10720
9510
10762
10765
10768
9513
9516
10771
10774
10777
9519
9522
9525
9528
10780
10783
10786
9531
9534
9540
10789
10792
10795
9537
9543
9546
10798
10801
10804
10807
9549
9552
9555
9558
10810
10813
10816
9561
9564
9570
10819
10822
10825
9567
9573
9576
10828
10831
10834
9579
9582
9588
10837
10840
10843
9585
9594
10846
10849
10852
10858
9624
10876
10882
10885
9627
9630
9633
9636
10888
10891
10894
9639
9642
10897
10900
10903
9645
9648
9651
9654
10906
10909
10912
9657
9660
9666
10915
10918
10921
9663
9669
9672
10924
10927
10930
10933
9675
9678
9681
9684
10936
10939
10942
9687
9690
9696
10945
10948
10951
9693
9699
9702
10954
10957
10960
9705
9708
9714
10963
10966
10969
9711
9717
9720
10972
10975
10978
10981
9726
10984
9744
9747
9750
11002
11005
11008
11011
9753
9756
9759
9762
11014
11017
11020
9765
9768
11023
11026
11029
9771
9774
9777
9780
11032
11035
11038
9783
9786
9792
11041
11044
11047
9789
9795
9798
11050
11053
11056
11059
9801
9804
9807
9810
11062
11065
11068
9813
9816
9822
11071
11074
11077
9819
9825
9828
11080
11083
11086
9831
9834
9840
11089
11092
11095
9837
9843
9846
11098
11101
11104
11107
9849
9852
9858
11110
11113
11116
9870
11122
11125
9867
9873
9876
11128
11131
11134
11137
9879
9882
9885
9888
11140
11143
11146
9891
9894
11149
11152
11155
9897
9900
9903
9906
11158
11161
11164
9909
9912
9918
11167
11170
11173
9915
9921
9924
11176
11179
11182
11185
9927
9930
9933
9936
11188
11191
11194
9939
9942
9948
11197
11200
11203
9945
9951
9954
11206
11209
11212
9957
9960
9966
11215
11218
11221
9963
9969
9972
11224
11227
11230
11233
9975
9978
9984
11236
11239
11242
9996
11248
11251
9993
9999
10002
11254
11257
11260
11263
10005
10008
10011
10014
11266
11269
11272
10017
10020
11275
11278
11281
10023
10026
10029
10032
11284
11287
11290
10035
10038
10044
11293
11296
11299
10041
10047
10050
11302
11305
11308
11311
10053
10056
10059
10062
11314
11317
11320
10065
10068
10074
11323
11326
11329
10071
10077
10080
11332
11335
11338
10532
10538
10544
10545
10550
10551
10556
10557
10562
10568
10574
10586
10592
10640
10646
10647
10652
10653
10655
10658
10659
10661
10664
10665
10667
10670
10673
10671
10676
10677
10679
10682
10683
10685
10688
10689
10691
10694
10695
10697
10700
10703
10701
10706
10707
10709
10712
10713
10715
10718
10721
10719
10724
10730
10760
10761
10763
10766
10767
10769
10772
10773
10775
10778
10779
10781
10784
10785
10787
10790
10791
10793
10796
10799
10797
10802
10803
10805
10808
10809
10811
10814
10815
10817
10820
10821
10823
10826
10829
10827
10832
10833
10835
10838
10839
10841
10844
10847
10845
10850
10851
10853
10856
10857
10859
10862
10875
10880
10881
10883
10886
10887
10889
10892
10893
10895
10898
10899
10901
10904
10905
10907
10910
10911
10913
10916
10917
10919
10922
10925
10923
10928
10929
10931
10934
10935
10937
10940
10941
10943
10946
10947
10949
10952
10955
10953
10958
10959
10961
10964
10965
10967
10970
10973
10971
10976
10977
10979
10982
10983
10985
10988
10989
10991
10995
11000
11003
11001
11006
11007
11009
11012
11013
11015
11018
11019
11021
11024
11025
11027
11030
11031
11033
11036
11037
11039
11042
11043
11045
11048
11051
11049
11054
11055
11057
11060
11061
11063
11066
11067
11069
11072
11073
11075
11078
11081
11079
11084
11085
11087
11090
11091
11093
11096
11099
11097
11102
11103
11105
11108
11109
11111
11114
11115
11117
11120
11121
11123
11126
11129
11127
11132
11133
11135
11138
11139
11141
11144
11145
11147
11150
11151
11153
11156
11157
11159
11162
11163
11165
11168
11169
11171
11174
11177
11175
11180
11181
11183
11186
11187
11189
11192
11193
11195
11198
11199
11201
11204
11207
11205
11210
11211
11213
11216
11217
11219
11222
11225
11223
11228
11229
11231
11234
11235
11237
11240
11241
11243
11246
11247
11249
11252
11255
11253
11258
11259
11261
11264
11265
11267
11270
11271
11273
11276
11277
11279
11282
11283
11285
11288
11289
11291
11294
11295
11297
11300
11303
11301
11306
11307
11309
11312
11313
11315
11318
11319
11321
11324
11325
11327
11330
11333
11331
11336
11337
11339
11782
10530
10536
11788
11794
11795
10542
10548
11797
11800
11801
11803
11807
10554
11806
11809
11812
11813
11815
10560
10566
11818
11819
11821
11824
11825
10572
10578
11827
11830
11831
11837
10584
11836
11842
10590
10596
11845
11848
11849
11854
10644
11896
11902
11903
10650
11905
11908
11909
11911
10656
10662
11914
11915
11917
11920
11921
10668
10674
11923
11926
11927
11929
11933
10680
11932
11935
11938
11939
11941
10686
10692
11944
11945
11947
11950
11951
10698
10704
11953
11956
11957
11959
11963
10710
11962
11965
11968
11969
10716
10722
11971
11974
11975
11977
11981
10728
11980
11983
11986
11987
10734
11992
10758
12010
12016
12017
12019
10764
10770
12022
12023
12025
12028
12029
10776
12031
12034
12035
12037
10782
10788
12040
12041
12043
12046
12047
10794
10800
12049
12052
12053
12055
12059
10806
12058
12061
12064
12065
12067
10812
10818
12070
12071
12073
12076
12077
10824
10830
12079
12082
12083
12085
12089
10836
12088
12091
12094
12095
10842
10848
12097
12100
12101
12103
12107
10854
12106
12109
12112
12113
12115
10860
10866
12118
12119
12121
12124
12125
10878
12130
12137
10884
12136
12139
12142
12143
12145
10890
10896
12148
12149
12151
12154
12155
10902
12157
12160
12161
12163
10908
10914
12166
12167
12169
12172
12173
10920
10926
12175
12178
12179
12181
12185
10932
12184
12187
12190
12191
12193
10938
10944
12196
12197
12199
12202
12203
10950
10956
12205
12208
12209
12211
12215
10962
12214
12217
12220
12221
10968
10974
12223
12226
12227
12229
12233
10980
12232
12235
12238
12239
12241
10986
10992
12244
12245
12247
12250
12251
10998
11004
12253
12256
12257
12259
12263
11010
12262
12265
12268
12269
12271
11016
11022
12274
12275
12277
12280
12281
11028
12283
12286
12287
12289
11034
11040
12292
12293
12295
12298
12299
11046
11052
12301
12304
12305
12307
12311
11058
12310
12313
12316
12317
12319
11064
11070
12322
12323
12325
12328
12329
11076
11082
12331
12334
12335
12337
12341
11088
12340
12343
12346
12347
11094
11100
12349
12352
12353
12355
12359
11106
12358
12361
12364
12365
12367
11112
11118
12370
12371
12373
12376
12377
11124
11130
12379
12382
12383
12385
12389
11136
12388
12391
12394
12395
12397
11142
11148
12400
12401
12403
12406
12407
11154
12409
12412
12413
12415
11160
11166
12418
12419
12421
12424
12425
11172
11178
12427
12430
12431
12433
12437
11184
12436
12439
12442
12443
12445
11190
11196
12448
12449
12451
12454
12455
11202
11208
12457
12460
12461
12463
12467
11214
12466
12469
12472
12473
11220
11226
12475
12478
12479
12481
12485
11232
12484
12487
12490
12491
12493
11238
11244
12496
12497
12499
12502
12503
11250
11256
12505
12508
12509
12511
12515
11262
12514
12517
12520
12521
12523
11268
11274
12526
12527
12529
12532
12533
11280
12535
12538
12539
12541
11286
11292
12544
12545
12547
12550
12551
11298
11304
12553
12556
12557
12559
12563
11310
12562
12565
12568
12569
12571
11316
11322
12574
12575
12577
12580
12581
11328
11334
12583
12586
12587
12589
12593
11340
12592
12595
12598
12599
11720
11784
11786
11790
11792
11793
11796
11798
11799
11802
11804
11808
11805
11810
11811
11814
11816
11817
11820
11822
11823
11826
11828
11829
11832
11834
11838
11835
11840
11844
11846
11847
11850
11852
11856
11858
11862
11894
11898
11900
11901
11904
11906
11907
11910
11912
11913
11916
11918
11919
11922
11924
11925
11928
11930
11934
11931
11936
11937
11940
11942
11943
11946
11948
11949
11952
11954
11955
11958
11960
11964
11961
11966
11967
11970
11972
11973
11976
11978
11982
11979
11984
11985
11988
11990
11994
12012
12014
12015
12018
12020
12021
12024
12026
12027
12030
12032
12033
12036
12038
12039
12042
12044
12045
12048
12050
12051
12054
12056
12060
12057
12062
12063
12066
12068
12069
12072
12074
12075
12078
12080
12081
12084
12086
12090
12087
12092
12093
12096
12098
12099
12102
12104
12108
12105
12110
12111
12114
12116
12117
12120
12122
12126
12132
12134
12138
12135
12140
12141
12144
12146
12147
12150
12152
12153
12156
12158
12159
12162
12164
12165
12168
12170
12171
12174
12176
12177
12180
12182
12186
12183
12188
12189
12192
12194
12195
12198
12200
12201
12204
12206
12207
12210
12212
12216
12213
12218
12219
12222
12224
12225
12228
12230
12234
12231
12236
12237
12240
12242
12243
12246
12248
12249
12252
12254
12255
12258
12260
12264
12261
12266
12267
12270
12272
12273
12276
12278
12279
12282
12284
12285
12288
12290
12291
12294
12296
12297
12300
12302
12303
12306
12308
12312
12309
12314
12315
12318
12320
12321
12324
12326
12327
12330
12332
12333
12336
12338
12342
12339
12344
12345
12348
12350
12351
12354
12356
12360
12357
12362
12363
12366
12368
12369
12372
12374
12375
12378
12380
12381
12384
12386
12390
12387
12392
12393
12396
12398
12399
12402
12404
12405
12408
12410
12411
12414
12416
12417
12420
12422
12423
12426
12428
12429
12432
12434
12438
12435
12440
12441
12444
12446
12447
12450
12452
12453
12456
12458
12459
12462
12464
12468
12465
12470
12471
12474
12476
12477
12480
12482
12486
12483
12488
12489
12492
12494
12495
12498
12500
12501
12504
12506
12507
12510
12512
12516
12513
12518
12519
12522
12524
12525
12528
12530
12531
12534
12536
12537
12540
12542
12543
12546
12548
12549
12552
12554
12555
12558
12560
12564
12561
12566
12567
12570
12572
12573
12576
12578
12579
12582
12584
12585
12588
12590
12594
12591
12596
12597
12600
33619
33613
32409
33607
33601
32403
32405
32519
13105
13111
13159
13231
13237
13243
13249
13273
13279
13285
13363
13369
13375
13381
13393
13399
13405
13411
13417
13495
13501
13507
13513
13519
13525
13531
13537
13543
13627
13633
13639
13645
13651
13657
13663
13669
13717
13723
13729
13753
13759
13765
13771
13777
13783
13789
13795
13837
13843
13849
13855
37219
37225
37231
37237
37243
37249
37255
12980
13042
13046
13048
13051
13052
13054
13055
13057
13058
13060
13061
13063
13064
13067
13066
13069
13070
13072
13073
13075
13076
13078
13079
13081
13082
13084
13085
13087
13088
13090
13091
13093
13094
13097
13096
13100
13102
13106
13108
13109
13112
13115
13114
13118
13154
13156
13160
13162
13163
13165
13166
13168
13169
13171
13172
13174
13175
13177
13178
13180
13181
13183
13184
13186
13187
13189
13190
13193
13192
13195
13196
13198
13199
13201
13202
13204
13205
13207
13208
13210
13211
13213
13214
13216
13217
13219
13220
13223
13222
13225
13226
13228
13229
13232
13234
13235
13238
13241
13240
13244
13246
13247
13250
13252
13270
13274
13276
13277
13280
13282
13283
13286
13288
13289
13291
13292
13294
13295
13297
13298
13300
13301
13303
13304
13306
13307
13309
13310
13312
13313
13315
13316
13319
13318
13321
13322
13324
13325
13327
13328
13330
13331
13333
13334
13336
13337
13339
13340
13342
13343
13345
13346
13349
13348
13351
13352
13354
13355
13357
13358
13360
13361
13364
13367
13366
13370
13372
13373
13376
13378
13379
13382
13384
13385
13390
13394
13397
13396
13400
13402
13403
13406
13408
13409
13412
13414
13415
13418
13420
13421
13423
13424
13426
13427
13429
13430
13432
13433
13435
13436
13438
13439
13441
13442
13445
13444
13447
13448
13450
13451
13453
13454
13456
13457
13459
13460
13462
13463
13465
13466
13468
13469
13471
13472
13475
13474
13477
13478
13480
13481
13483
13484
13486
13487
13489
13490
13493
13492
13496
13498
13499
13502
13504
13505
13508
13510
13511
13514
13516
13517
13520
13523
13522
13526
13528
13529
13532
13534
13535
13538
13540
13541
13544
13546
13547
13549
13550
13552
13553
13555
13556
13558
13559
13561
13562
13564
13565
13567
13568
13571
13570
13573
13574
13576
13577
13579
13580
13582
13583
13585
13586
13588
13589
13591
13592
13594
13595
13597
13598
13601
13600
13603
13604
13606
13607
13609
13610
13612
13613
13615
13616
13619
13618
13621
13622
13624
13625
13628
13630
13631
13634
13636
13637
13640
13642
13643
13646
13649
13648
13652
13654
13655
13658
13660
13661
13664
13666
13667
13670
13672
13673
13675
13676
13678
13679
13681
13682
13684
13685
13687
13688
13690
13691
13693
13694
13697
13696
13699
13700
13702
13703
13705
13706
13708
13709
13711
13712
13714
13715
13718
13720
13721
13724
13727
13726
13730
13732
13733
13735
13736
13738
13739
13741
13742
13745
13744
13747
13748
13750
13751
13754
13756
13757
13760
13762
13763
13766
13768
13769
13772
13775
13774
13778
13780
13781
13784
13786
13787
13790
13792
13793
13796
13798
13799
13801
13802
13804
13805
13807
13808
13810
13811
13813
13814
13816
13817
13819
13820
13823
13822
13825
13826
13828
13829
13831
13832
13834
13835
13838
13840
13841
13844
13846
13847
13850
13853
13852
13856
13858
13859
13050
13053
13056
14308
14314
13059
13062
13068
14317
14320
14323
13065
13071
13074
14326
14329
14332
14335
13077
13080
13083
13086
14338
14341
14344
13089
13092
13098
14347
14350
13104
14356
14362
13107
13110
13116
14365
14368
14374
13158
13161
13164
14416
14422
13167
13170
14425
14428
14431
13173
13176
13179
13182
14434
14437
14440
13185
13188
13194
14443
14446
14449
13191
13197
13200
14452
14455
14458
14461
13203
13206
13209
13212
14464
14467
14470
13215
13218
13224
14473
14476
14479
13221
13227
13230
14482
14485
14488
13233
13236
13242
14491
14494
14497
13239
13245
13248
14500
14503
14506
13254
13275
13278
14536
14539
13281
13284
13287
13290
14542
14545
14548
13293
13296
14551
14554
14557
13299
13302
13305
13308
14560
14563
14566
13311
13314
13320
14569
14572
14575
13317
13323
13326
14578
14581
14584
14587
13329
13332
13335
13338
14590
14593
14596
13341
13344
13350
14599
14602
14605
13347
13353
13356
14608
14611
14614
13359
13362
13368
14617
14620
14623
13365
13371
13374
14626
14629
14632
14635
13377
13380
13386
14638
14641
13398
13395
13401
13404
14656
14659
14662
14665
13407
13410
13413
13416
14668
14671
14674
13419
13422
14677
14680
14683
13425
13428
13431
13434
14686
14689
14692
13437
13440
13446
14695
14698
14701
13443
13449
13452
14704
14707
14710
14713
13455
13458
13461
13464
14716
14719
14722
13467
13470
13476
14725
14728
14731
13473
13479
13482
14734
14737
14740
13485
13488
13494
14743
14746
14749
13491
13497
13500
14752
14755
14758
14761
13503
13506
13509
13512
14764
14767
14770
13515
13518
13524
14773
14776
14779
13521
13527
13530
14782
14785
14788
14791
13533
13536
13539
13542
14794
14797
14800
13545
13548
14803
14806
14809
13551
13554
13557
13560
14812
14815
14818
13563
13566
13572
14821
14824
14827
13569
13575
13578
14830
14833
14836
14839
13581
13584
13587
13590
14842
14845
14848
13593
13596
13602
14851
14854
14857
13599
13605
13608
14860
14863
14866
13611
13614
13620
14869
14872
14875
13617
13623
13626
14878
14881
14884
14887
13629
13632
13635
13638
14890
14893
14896
13641
13644
13650
14899
14902
14905
13647
13653
13656
14908
14911
14914
14917
13659
13662
13665
13668
14920
14923
14926
13671
13674
14929
14932
14935
13677
13680
13683
13686
14938
14941
14944
13689
13692
13698
14947
14950
14953
13695
13701
13704
14956
14959
14962
14965
13707
13710
13713
13716
14968
14971
14974
13719
13722
13728
14977
14980
14983
13725
13731
13734
14986
14989
14992
13737
13740
13746
14995
14998
15001
13743
13749
13752
15004
15007
15010
15013
13755
13758
13761
13764
15016
15019
15022
13767
13770
13776
15025
15028
15031
13773
13779
13782
15034
15037
15040
15043
13785
13788
13791
13794
15046
15049
15052
13797
13800
15055
15058
15061
13803
13806
13809
13812
15064
15067
15070
13815
13818
13824
15073
15076
15079
13821
13827
13830
15082
15085
15088
15091
13833
13836
13839
13842
15094
15097
15100
13845
13848
13854
15103
15106
15109
13851
13857
13860
15112
15115
15118
14312
14318
14324
14327
14330
14333
14336
14339
14342
14345
14348
14354
14366
14369
14372
14420
14426
14427
14429
14432
14433
14435
14438
14439
14441
14444
14445
14447
14450
14453
14451
14456
14457
14459
14462
14463
14465
14468
14469
14471
14474
14475
14477
14480
14483
14481
14486
14487
14489
14492
14493
14495
14498
14501
14499
14504
14507
14510
14540
14541
14543
14546
14547
14549
14552
14553
14555
14558
14559
14561
14564
14565
14567
14570
14571
14573
14576
14579
14577
14582
14583
14585
14588
14589
14591
14594
14595
14597
14600
14601
14603
14606
14609
14607
14612
14613
14615
14618
14619
14621
14624
14627
14625
14630
14631
14633
14636
14639
14642
14660
14661
14663
14666
14667
14669
14672
14673
14675
14678
14679
14681
14684
14685
14687
14690
14691
14693
14696
14697
14699
14702
14705
14703
14708
14709
14711
14714
14715
14717
14720
14721
14723
14726
14727
14729
14732
14735
14733
14738
14739
14741
14744
14745
14747
14750
14753
14751
14756
14757
14759
14762
14763
14765
14768
14771
14780
14783
14781
14786
14787
14789
14792
14793
14795
14798
14799
14801
14804
14805
14807
14810
14811
14813
14816
14817
14819
14822
14823
14825
14828
14831
14829
14834
14835
14837
14840
14841
14843
14846
14847
14849
14852
14853
14855
14858
14861
14859
14864
14865
14867
14870
14871
14873
14876
14879
14877
14882
14883
14885
14888
14889
14891
14894
14895
14897
14900
14901
14903
14906
14909
14907
14912
14913
14915
14918
14919
14921
14924
14925
14927
14930
14931
14933
14936
14937
14939
14942
14943
14945
14948
14949
14951
14954
14957
14955
14960
14961
14963
14966
14967
14969
14972
14973
14975
14978
14979
14981
14984
14987
14985
14990
14991
14993
14996
14997
14999
15002
15005
15003
15008
15009
15011
15014
15015
15017
15020
15021
15023
15026
15027
15029
15032
15035
15033
15038
15039
15041
15044
15045
15047
15050
15051
15053
15056
15057
15059
15062
15063
15065
15068
15069
15071
15074
15075
15077
15080
15083
15081
15086
15087
15089
15092
15093
15095
15098
15099
15101
15104
15105
15107
15110
15113
15111
15116
15117
15119
14322
14328
14334
14340
14346
14352
14370
14430
15688
14436
14442
15694
15697
15700
14448
14454
15703
15706
15707
15709
15713
14460
15712
15715
15718
15719
15721
14466
14472
15724
15725
15727
15730
15731
14478
14484
15733
15736
15737
15739
14490
15742
15745
15748
14496
14502
15751
15754
15755
15757
14508
15760
14544
14550
15802
15805
15808
14556
15811
15814
15815
15817
14562
14568
15820
15821
15823
15826
15827
14574
14580
15829
15832
15833
15835
15839
14586
15838
15841
15844
15845
15847
14592
14598
15850
15851
15853
15856
15857
14604
14610
15859
15862
15863
15865
15869
14616
15868
15871
15874
15875
14622
14628
15877
15880
15881
15883
15887
14634
15886
15889
15892
14640
14664
15922
15925
14670
14676
15928
15929
15931
15934
15935
14682
15937
15940
15941
15943
14688
14694
15946
15947
15949
15952
15953
14700
14706
15955
15958
15959
15961
15965
14712
15964
15967
15970
15971
15973
14718
14724
15976
15977
15979
15982
15983
14730
14736
15985
15988
15989
15991
15995
14742
15994
15997
16000
16001
14748
14754
16003
16006
16007
16009
16013
14760
16012
16015
16018
16019
16021
14766
14772
16024
14784
14790
16042
16045
16048
16049
16051
14796
14802
16054
16055
16057
16060
16061
14808
16063
16066
16067
16069
14814
14820
16072
16073
16075
16078
16079
14826
14832
16081
16084
16085
16087
16091
14838
16090
16093
16096
16097
16099
14844
14850
16102
16103
16105
16108
16109
14856
14862
16111
16114
16115
16117
16121
14868
16120
16123
16126
16127
14874
14880
16129
16132
16133
16135
16139
14886
16138
16141
16144
16145
16147
14892
14898
16150
16151
16153
14904
14910
16165
16169
14916
16168
16171
16174
16175
16177
14922
14928
16180
16181
16183
16186
16187
14934
16189
16192
16193
16195
14940
14946
16198
16199
16201
16204
16205
14952
14958
16207
16210
16211
16213
16217
14964
16216
16219
16222
16223
16225
14970
14976
16228
16229
16231
16234
16235
14982
14988
16237
16240
16241
16243
16247
14994
16246
16249
16252
16253
15000
15006
16255
16258
16259
16261
16265
15012
16264
16267
16270
16271
16273
15018
15024
16276
16277
16279
16282
16283
15030
15036
16288
16291
16295
15042
16294
16297
16300
16301
16303
15048
15054
16306
16307
16309
16312
16313
15060
16315
16318
16319
16321
15066
15072
16324
16325
16327
16330
16331
15078
15084
16333
16336
16337
16339
16343
15090
16342
16345
16348
16349
16351
15096
15102
16354
16355
16357
16360
16361
15108
15114
16363
16366
16367
16369
16373
15120
16372
16375
16378
16379
15698
15704
15710
15714
15716
15720
15722
15726
15728
15732
15734
15740
15752
15812
15818
15819
15822
15824
15825
15828
15830
15831
15834
15836
15840
15837
15842
15843
15846
15848
15849
15852
15854
15855
15858
15860
15861
15864
15866
15870
15867
15872
15873
15876
15878
15879
15882
15884
15888
15890
15926
15932
15933
15936
15938
15939
15942
15944
15945
15948
15950
15951
15954
15956
15957
15960
15962
15966
15963
15968
15969
15972
15974
15975
15978
15980
15981
15984
15986
15987
15990
15992
15996
15993
15998
15999
16002
16004
16005
16008
16010
16014
16011
16016
16020
16022
16046
16052
16053
16056
16058
16059
16062
16064
16065
16068
16070
16071
16074
16076
16077
16080
16082
16083
16086
16088
16092
16089
16094
16095
16098
16100
16101
16104
16106
16107
16110
16112
16113
16116
16118
16122
16119
16124
16125
16128
16130
16131
16134
16136
16140
16137
16142
16143
16146
16148
16172
16173
16176
16178
16179
16182
16184
16185
16188
16190
16191
16194
16196
16197
16200
16202
16203
16206
16208
16209
16212
16214
16218
16215
16220
16221
16224
16226
16227
16230
16232
16233
16236
16238
16239
16242
16244
16248
16245
16250
16251
16254
16256
16257
16260
16262
16266
16263
16268
16269
16272
16274
16275
16278
16280
16293
16298
16299
16302
16304
16305
16308
16310
16311
16314
16316
16317
16320
16322
16323
16326
16328
16329
16332
16334
16335
16338
16340
16344
16341
16346
16347
16350
16352
16353
16356
16358
16359
16362
16364
16365
16368
16370
16374
16371
16376
16377
16380
17086
17089
17092
17095
17098
17101
17104
17107
17110
17113
17116
17119
17122
17137
17200
17203
17206
17209
17210
17212
17213
17215
17216
17218
17219
17221
17222
17225
17224
17227
17228
17230
17231
17233
17234
17236
17237
17239
17240
17242
17243
17245
17246
17248
17249
17251
17252
17255
17254
17257
17260
17263
17264
17266
17269
17317
17320
17323
17326
17327
17329
17330
17332
17333
17335
17336
17338
17339
17341
17342
17344
17345
17347
17348
17351
17350
17353
17354
17356
17357
17359
17360
17362
17363
17365
17366
17368
17369
17371
17372
17374
17375
17377
17378
17381
17380
17383
17384
17386
17387
17389
17390
17392
17393
17395
17398
17401
17437
17440
17443
17446
17447
17449
17450
17452
17453
17455
17456
17458
17459
17461
17462
17464
17465
17467
17468
17470
17471
17473
17474
17477
17476
17479
17480
17482
17483
17485
17486
17488
17489
17491
17492
17494
17495
17497
17498
17500
17501
17503
17504
17507
17506
17509
17510
17512
17513
17515
17516
17518
17519
17521
17522
17525
17524
17527
17563
17566
17569
17570
17572
17573
17575
17576
17578
17579
17581
17582
17584
17585
17587
17588
17590
17591
17593
17594
17596
17597
17599
17600
17603
17602
17605
17606
17608
17609
17611
17612
17614
17615
17617
17618
17620
17621
17623
17624
17626
17627
17629
17630
17633
17632
17635
17636
17638
17639
17337
17340
17343
17346
17352
17349
17355
17358
17361
17364
17367
17370
17373
17376
17382
17379
17451
17457
17460
17463
17466
17469
17472
17478
18727
18733
17475
17481
17484
18739
18745
17487
17490
17493
17496
18751
17499
17502
17508
18757
17505
17511
17514
17577
17583
17586
17589
17592
18847
17595
17598
17604
18853
18859
17601
17607
17610
18865
18871
17613
17616
17619
17622
18877
17625
17628
17634
18883
18889
17631
17637
17640
18736
18742
18748
18856
18862
18868
18874
18880
37201
37205
37207
37211
37213
37217
37223
37229
37235
37241
37247
37253
37259
37261
37319
37203
38401
38407
37209
37215
38413
38419
37221
37227
38425
37233
38431
38437
37239
37245
38443
38449
37251
37257
38455
38461
38403
38405
38411
38409
38415
38417
38421
38423
38427
38429
38433
38435
38441
38439
38445
38447
38451
38453
38457
38459
38519
39601
39605
39607
39611
39613
39617
39619
39623
39625
39629
39631
39637
39641
39643
39647
39649
39653
39655
39659
39661
39719
39603
39609
39615
39621
39639
39645
39651
39657
40801
40805
40807
40811
40813
40819
40849
40853
40855
40859
40861
40919
40857
36522
36504
36615
36609
36500
36498
36494
36603
36492
36488
36486
36482
36597
36591
36480
36476
36474
36470
36585
36579
36468
36464
36462
36573
36567
36458
36456
36452
36561
36450
36446
36444
36440
36555
36549
36438
36434
36432
36543
36428
36426
36422
36537
36531
36420
36416
36414
36525
36519
36410
36408
36404
36402
36398
36396
36501
36390
36386
36384
36495
36489
36380
36378
36374
36483
36372
36368
36366
36362
36477
36471
36360
36356
36354
36350
36465
36459
36348
36344
36342
36453
36447
36338
36336
36332
36957
36951
36945
36939
36933
36927
36921
36915
36837
36840
36836
36834
36831
36830
36828
36825
36824
36822
36819
31284
31290
31296
31302
31308
31314
36818
31410
31416
31422
31428
36816
36813
36812
36807
32525
36810
36806
36804
36801
36800
36798
36795
36794
36792
36789
36788
36786
36783
36777
32464
32465
32585
32470
32471
32473
32476
32477
32591
32593
32597
32479
32482
32483
32485
32489
32599
32603
32605
32609
32488
32491
32494
32495
32497
32611
32615
32617
32500
32501
32503
32506
32507
32621
32623
32627
32509
32512
32513
32515
32629
32633
32635
32639
32518
32590
32596
32711
32717
32602
32719
32723
32725
32729
32608
32614
32731
32735
32737
32620
32626
32741
32743
32747
32632
32749
32753
32759
32638
32716
32837
32722
32843
32849
32728
32734
32855
32740
32746
32861
32867
32752
32873
32879
32402
32406
32408
32412
32523
33721
33727
32418
32529
33733
33769
32454
32456
32460
32571
32577
33775
32462
32463
32466
32468
32583
33667
33781
33787
32469
32472
32474
32475
32478
32589
32595
33673
33793
32480
32481
32484
32486
32490
32601
33679
33685
33799
33805
32487
32492
32493
32496
32498
32607
32613
33691
33697
33811
33817
32499
32502
32504
32505
32508
32619
32625
33703
33823
32510
32511
32514
32516
32520
32631
33709
33715
33829
33835
32517
32637
32522
32526
32532
32643
33841
33847
33853
33889
32574
32580
32697
33895
32582
32586
32588
32703
33901
33907
32592
32594
32598
32709
32715
33913
32600
32604
32606
32610
32721
33919
33925
32612
32616
32618
32727
32733
33931
33937
32622
32624
32628
32739
32745
33943
32630
32634
32636
32640
32751
33949
33955
32757
32642
32646
32652
33961
33967
32700
34015
32706
32708
32823
34021
34027
32712
32714
32718
32829
32835
34033
32720
32724
32726
32730
32841
34039
34045
32732
32736
32738
32847
32853
34051
34057
32742
32744
32748
32859
32865
34063
32750
32754
32756
32760
32871
34069
34075
32877
34081
32826
34147
32832
32834
32838
32955
34153
32840
32844
32846
32850
32961
34159
34165
32852
32856
32858
32967
32973
34171
34177
32862
32864
32868
32979
32985
34183
32870
32874
32876
32880
32991
34189
34195
32997
32958
32964
32970
34279
34285
32976
34291
34297
32982
32988
34303
32994
33000
34309
33602
33604
33608
33725
33731
33610
33614
33616
33620
33737
36723
33626
36722
33743
36720
36716
33644
33646
36714
33650
33767