ITEM: TIMESTEP
0
ITEM: NUMBER OF ATOMS
9723
ITEM: BOX BOUNDS pp ff pp
0.0000000000000000e+00 2.5099595787999999e+02
0.0000000000000000e+00 2.8265827100000001e+02
0.0000000000000000e+00 4.1963870279999998e+02
ITEM: ATOMS id
1881873
1881867
1881861
1881855
1881849
1881843
1881837
1881831
1881825
1881819
1881813
1881807
1881801
1881795
1881789
1881783
1881777
1881771
1881765
1881759
1881753
1881747
1881741
1881735
1881877
1881875
1881871
1881869
1881865
1881863
1881859
1881857
1881853
1881851
1881847
1881845
1881841
1881839
1881835
1881833
1881829
1881827
1881823
1881821
1881817
1881815
1881811
1881809
1881805
1881803
1881799
1881797
1881793
1881791
1881787
1881785
1881781
1881779
1881775
1881773
1881769
1881767
1881763
1881761
1881757
1881755
1881751
1881749
1881745
1881743
1881739
1860875
1860873
1860869
1860867
1860863
1860861
1860855
1860857
1860851
1860849
1860845
1860843
1860837
1860839
1860833
1860831
1860827
1860825
1860821
1860819
1860815
1860813
1860809
1860807
1860803
1860801
1860797
1860795
1860789
1860791
1860785
1860783
1860779
1860777
1860771
1860773
1860767
1860765
1860761
1860759
1860755
1860753
1860749
1860747
1860743
1860741
1860871
1860865
1860859
1860853
1860847
1860841
1860835
1860829
1860823
1860817
1860811
1860805
1860799
1860793
1860787
1860781
1860775
1860769
1860763
1860757
1860751
1860745
1839863
1839861
1839855
1839857
1839851
1839849
1839845
1839843
1839837
1839839
1839833
1839831
1839827
1839825
1839821
1839819
1839815
1839813
1839809
1839807
1839803
1839801
1839797
1839795
1839789
1839791
1839785
1839783
1839779
1839777
1839771
1839773
1839767
1839765
1839761
1839759
1839755
1839753
1839747
1839859
1839853
1818849
1839847
1839841
1818843
1818837
1839835
1839829
1818831
1839823
1818825
1818819
1839817
1839811
1818813
1839805
1818807
1818801
1839799
1839793
1818795
1818789
1839787
1839781
1818783
1839775
1818777
1818771
1839769
1839763
1818765
1839757
1818845
1818839
1818833
1818827
1818821
1818815
1818809
1818803
1818797
1818791
1818785
1818779
1818773
1818829
1818823
1818817
1818811
1818805
1818799
1818793
1818787
1818781
571651
571657
571663
571669
571675
571681
572251
572257
572263
550452
550458
572269
550464
572275
572281
572287
572293
551052
551058
551064
551070
551076
570434
571043
570440
570446
571049
570452
571055
571061
570458
570464
571067
570470
571073
571079
570476
571028
571637
571034
571040
571643
571649
571042
571046
571048
571052
571655
571054
571058
571060
571661
571667
571064
571066
571070
571673
571072
571076
571078
571679
571685
571082
571088
571691
571697
571094
571628
572237
571634
571636
572243
571640
571642
571646
572249
572255
571648
571652
571654
571658
572261
571660
571664
571666
572267
572273
571670
571672
571676
572279
571678
571682
571684
572285
572291
571688
571690
571694
572297
572303
571700
572309
572234
572240
572242
572246
572248
572252
572254
572258
572260
572264
572266
572270
572272
572276
572278
572282
572284
572288
572290
572294
572296
572300
572302
572306
572312
591043
591049
590446
590452
591055
590458
591061
591067
591073
591028
591631
569832
570429
591034
591637
591643
569838
570435
570441
591040
591046
591649
591655
569844
569850
570447
570453
591052
591058
591661
569856
570459
591064
591667
591673
569862
569868
570465
570471
591070
591076
591679
591082
591685
591691
591088
591697
591622
592231
570426
571023
571029
591628
591634
592237
570432
570438
571035
591640
592243
592249
570444
571041
571047
591646
591652
592255
592261
570450
570456
571053
571059
591658
591664
592267
570462
571065
591670
592273
592279
570468
570474
571071
571077
591676
591682
592285
570480
570486
571083
591688
592291
592297
571089
591694
591700
592303
592309
592222
571020
571026
571623
592228
592831
592837
571032
571629
571635
592234
592240
592843
571038
571044
571641
592246
592849
592855
571050
571647
571653
592252
592258
592861
592867
571056
571062
571659
571665
592264
592270
592873
571068
571671
592276
592879
592885
571074
571080
571677
571683
592282
592288
592891
571086
571092
571689
592294
592897
592903
571098
571695
571701
592300
592306
592909
592915
571104
592312
592921
592822
592828
593431
571626
571632
572229
592834
593437
593443
571638
572235
572241
592840
592846
593449
571644
571650
572247
592852
593455
593461
571656
572253
572259
592858
592864
593467
593473
571662
571668
572265
572271
592870
592876
593479
571674
572277
592882
593485
593491
571680
571686
572283
572289
592888
592894
593497
571692
571698
572295
592900
593503
593509
571704
572301
572307
592906
592912
593515
593521
571710
572313
592918
593527
592924
572226
593428
593434
572232
572238
593440
572244
593446
593452
572250
572256
593458
572262
593464
593470
572268
572274
593476
593482
572280
593488
572286
572292
593494
593500
572298
572304
593506
572310
593512
593518
572316
572322
593524
593530
590433
590439
590445
590451
590457
590463
591021
591027
590432
591033
591035
591041
590438
590444
591039
591045
591047
590450
591051
591053
591057
591059
590456
590462
591063
591065
590468
591069
591071
591075
591077
590474
591081
591083
591087
591615
591020
591621
591629
591026
591627
591633
591635
591032
591038
591639
591641
591647
591044
591050
591645
591651
591653
591056
591657
591659
591663
591665
591062
591068
591669
591671
591074
591675
591677
591681
591683
591080
591086
591687
591689
591695
591092
591693
591699
591701
591705
592215
592221
592223
591620
591626
592227
592229
592235
591632
592233
592239
592241
591638
591644
592245
592247
592253
591650
591656
592251
592257
592259
591662
592263
592265
592269
592271
591668
591674
592275
592277
591680
592281
592283
592287
592289
591686
591692
592293
592295
592301
591698
591704
592299
592305
592307
591710
592311
592313
592319
592317
592220
592821
592827
592829
592226
592232
592833
592835
592841
592238
592839
592845
592847
592244
592250
592851
592853
592859
592256
592262
592857
592863
592865
592268
592869
592871
592875
592877
592274
592280
592881
592883
592286
592887
592889
592893
592895
592292
592298
592899
592901
592907
592304
592310
592905
592911
592913
592316
592917
592919
592925
592322
592923
592929
592820
593421
592826
593427
593429
593433
593435
592832
592838
593439
593441
593447
592844
593445
593451
593453
592850
592856
593457
593459
593465
592862
592868
593463
593469
593471
592874
593475
593477
593481
593483
592880
592886
593487
593489
592892
593493
593495
593499
593501
592898
592904
593505
593507
593513
592910
592916
593511
593517
593519
592922
593523
593525
593531
592928
593529
593535
593537
593426
593432
593438
593444
593450
593456
593462
593468
593474
593480
593486
593492
593498
593504
593510
593516
593522
593528
593534
593540
611635
611641
611038
611044
611647
611653
611050
611056
611659
611062
611665
611671
611068
611677
611683
612229
590424
611626
611632
612235
590430
590436
611638
612241
612247
590442
611644
611650
612253
612259
590448
590454
611656
611662
612265
590460
611668
612271
612277
590466
590472
611674
611680
612283
590478
590484
611686
612289
612295
611692
612301
612307
612220
612823
591018
591024
612226
612829
612835
591030
612232
612238
612841
591036
591042
612244
612847
612853
591048
612250
612256
612859
612865
591054
591060
612262
612268
612871
591066
612274
612877
612883
591072
591078
612280
612286
612889
591084
591090
612292
612895
612901
591096
612298
612304
612907
612913
591102
612310
612919
613423
591618
612820
612826
613429
591624
591630
612832
613435
613441
591636
612838
612844
613447
591642
591648
612850
613453
613459
591654
612856
612862
613465
613471
591660
591666
612868
612874
613477
591672
612880
613483
613489
591678
591684
612886
612892
613495
591690
591696
612898
613501
613507
591702
612904
612910
613513
613519
591708
591714
612916
613525
612922
612928
613531
613420
614029
592218
592224
613426
613432
614035
592230
592236
613438
614041
614047
592242
613444
613450
614053
592248
592254
613456
614059
614065
592260
613462
613468
614071
614077
592266
592272
613474
613480
614083
592278
613486
614089
614095
592284
592290
613492
613498
614101
592296
592302
613504
614107
614113
592308
613510
613516
614119
614125
592314
592320
613522
614131
592326
613528
613534
614137
614143
614020
592818
614026
614629
614635
592824
592830
614032
614038
614641
592836
592842
614044
614647
614653
592848
614050
614056
614659
592854
592860
614062
614665
614671
592866
614068
614074
614677
614683
592872
592878
614080
614086
614689
592884
614092
614695
614701
592890
592896
614098
614104
614707
592902
592908
614110
614713
614719
592914
614116
614122
614725
614731
592920
592926
614128
614737
592932
614134
614140
614743
614749
592938
614146
614626
593424
614632
593430
593436
614638
614644
593442
593448
614650
593454
614656
614662
593460
593466
614668
593472
614674
614680
593478
593484
614686
614692
593490
614698
593496
593502
614704
614710
593508
593514
614716
593520
614722
614728
593526
593532
614734
593538
614740
614746
593544
614752
611049
611055
611061
611625
611631
611633
611034
611036
611040
611637
611639
611645
611042
611046
611048
611643
611649
611651
611052
611054
611058
611655
611657
611661
611663
611060
611064
611066
611667
611669
611070
611072
611076
611673
611675
611679
611681
611078
611082
611685
611687
611693
611691
612219
611622
611624
611628
612225
612227
612233
611630
611634
612231
612237
612239
611636
611640
611642
611646
612243
612245
612251
611648
611652
611654
612249
612255
612257
611658
611660
611664
612261
612263
612267
612269
611666
611670
611672
612273
612275
611676
611678
611682
612279
612281
612285
612287
611684
611688
611690
611694
612291
612293
612299
611696
611700
611702
612297
612303
612305
611706
612309
612311
612216
612218
612222
612819
612821
612825
612827
612224
612228
612230
612234
612831
612833
612839
612236
612240
612837
612843
612845
612242
612246
612248
612252
612849
612851
612857
612254
612258
612260
612855
612861
612863
612264
612266
612270
612867
612869
612873
612875
612272
612276
612278
612879
612881
612282
612284
612288
612885
612887
612891
612893
612290
612294
612296
612300
612897
612899
612905
612302
612306
612308
612903
612909
612911
612312
612314
612318
612915
612917
612923
612320
612324
612921
612927
612929
612816
612818
613419
613421
612822
612824
612828
613425
613427
613431
613433
612830
612834
612836
612840
613437
613439
613445
612842
612846
613443
613449
613451
612848
612852
612854
612858
613455
613457
613463
612860
612864
612866
613461
613467
613469
612870
612872
612876
613473
613475
613479
613481
612878
612882
612884
613485
613487
612888
612890
612894
613491
613493
613497
613499
612896
612900
612902
612906
613503
613505
613511
612908
612912
612914
613509
613515
613517
612918
612920
612924
613521
613523
613529
612926
612930
612932
613527
613533
613535
612936
613539
613541
614019
613418
613422
613424
614025
614027
613428
613430
613434
614031
614033
614037
614039
613436
613440
613442
613446
614043
614045
614051
613448
613452
614049
614055
614057
613454
613458
613460
613464
614061
614063
614069
613466
613470
613472
614067
614073
614075
613476
613478
613482
614079
614081
614085
614087
613484
613488
613490
614091
614093
613494
613496
613500
614097
614099
614103
614105
613502
613506
613508
613512
614109
614111
614117
613514
613518
613520
614115
614121
614123
613524
613526
613530
614127
614129
614135
613532
613536
613538
614133
614139
614141
613542
614145
614147
614022
614625
614627
614024
614028
614030
614631
614633
614034
614036
614040
614637
614639
614643
614645
614042
614046
614048
614052
614649
614651
614657
614054
614058
614655
614661
614663
614060
614064
614066
614070
614667
614669
614675
614072
614076
614078
614673
614679
614681
614082
614084
614088
614685
614687
614691
614693
614090
614094
614096
614697
614699
614100
614102
614106
614703
614705
614709
614711
614108
614112
614114
614118
614715
614717
614723
614120
614124
614126
614721
614727
614729
614130
614132
614136
614733
614735
614741
614138
614142
614144
614739
614745
614747
614148
614150
614154
614751
614753
614757
614759
614628
614630
614634
614636
614640
614642
614646
614648
614652
614654
614658
614660
614664
614666
614670
614672
614676
614678
614682
614684
614688
614690
614694
614696
614700
614702
614706
614708
614712
614714
614718
614720
614724
614726
614730
614732
614736
614738
614742
614744
614748
614750
614754
614756
614760
632249
632251
632255
632257
632261
632263
632267
632269
632273
632275
632279
632281
632285
632833
632837
632236
632839
632843
632242
632845
632849
632851
632855
632248
632254
632857
632861
632863
632260
632266
632867
632869
632873
632272
632875
632879
632881
632278
632284
632885
632887
632891
632290
632893
632897
632899
632903
632296
632905
632909
632824
633427
633431
632830
633433
633437
633439
633443
632836
632842
633445
633449
632848
633451
633455
633457
633461
632854
632860
633463
633467
633469
632866
632872
633473
633475
633479
632878
633481
633485
633487
632884
632890
633491
633493
633497
632896
633499
633503
633505
633509
632902
632908
633511
633515
633517
632914
633521
633523
633527
634025
634027
633424
633430
634031
634033
634037
633436
634039
634043
634045
634049
633442
633448
634051
634055
633454
634057
634061
634063
634067
633460
633466
634069
634073
634075
633472
633478
634079
634081
634085
633484
634087
634091
634093
633490
633496
634097
634099
634103
633502
634105
634109
634111
634115
633508
633514
634117
634121
634123
633520
634127
634129
634133
633526
633532
634135
634139
634141
634145
634024
634627
634631
634633
634030
634036
634637
634639
634643
634042
634645
634649
634651
634655
634048
634054
634657
634661
634060
634663
634667
634669
634673
634066
634072
634675
634679
634681
634078
634084
634685
634687
634691
634090
634693
634697
634699
634096
634102
634703
634705
634709
634108
634711
634715
634717
634721
634114
634120
634723
634727
634729
634126
634733
634735
634739
634132
634138
634741
634745
634747
634144
634751
634753
634624
635231
634630
635233
635237
635239
634636
634642
635243
635245
635249
634648
635251
635255
635257
635261
634654
634660
635263
635267
634666
635269
635273
635275
635279
634672
634678
635281
635285
635287
634684
634690
635291
635293
635297
634696
635299
635303
635305
634702
634708
635309
635311
635315
634714
635317
635321
635323
635327
634720
634726
635329
635333
635335
634732
635339
635341
635345
634738
634744
635347
635351
635353
634750
635357
635359
635363
635230
635833
635837
635236
635839
635843
635845
635242
635248
635849
635851
635855
635254
635857
635861
635863
635867
635260
635266
635869
635873
635272
635875
635879
635881
635885
635278
635284
635887
635891
635893
635290
635296
635897
635899
635903
635302
635905
635909
635911
635308
635314
635915
635917
635921
635320
635923
635927
635929
635933
635326
635332
635935
635939
635941
635338
635945
635947
635951
635344
635350
635953
635957
635959
635356
635362
635963
635965
635969
635971
635830
635836
635842
635848
635854
635860
635866
635872
635878
635884
635890
635896
635902
635908
635914
635920
635926
635932
635938
635944
635950
635956
635962
635968
632241
632247
632253
632259
632265
632271
632277
632283
632829
632234
632238
632835
632841
632240
632244
632246
632250
632847
632252
632256
632258
632853
632859
632262
632264
632268
632865
632871
632270
632274
632276
632877
632280
632282
632286
632883
632889
632288
632292
632294
632298
632895
632300
632901
632907
632826
633423
633429
632828
632832
632834
632838
633435
632840
632844
633441
633447
632846
632850
632852
632856
633453
632858
632862
632864
633459
633465
632868
632870
632874
633471
633477
632876
632880
632882
633483
632886
632888
632892
633489
633495
632894
632898
632900
632904
633501
632906
632910
632912
633507
633513
632916
632918
632922
633519
633525
633422
634023
633426
633428
633432
634029
634035
633434
633438
633440
633444
634041
633446
633450
634047
634053
633452
633456
633458
633462
634059
633464
633468
633470
634065
634071
633474
633476
633480
634077
634083
633482
633486
633488
634089
633492
633494
633498
634095
634101
633500
633504
633506
633510
634107
633512
633516
633518
634113
634119
633522
633524
633528
634125
633530
633534
634131
634137
634623
634022
634026
634028
634629
634032
634034
634038
634635
634641
634040
634044
634046
634050
634647
634052
634056
634653
634659
634058
634062
634064
634068
634665
634070
634074
634076
634671
634677
634080
634082
634086
634683
634689
634088
634092
634094
634695
634098
634100
634104
634701
634707
634106
634110
634112
634116
634713
634118
634122
634124
634719
634725
634128
634130
634134
634731
634136
634140
634142
634737
634743
634146
634749
634626
635229
634628
634632
634634
635235
634638
634640
634644
635241
635247
634646
634650
634652
634656
635253
634658
634662
635259
635265
634664
634668
634670
634674
635271
634676
634680
634682
635277
635283
634686
634688
634692
635289
635295
634694
634698
634700
635301
634704
634706
634710
635307
635313
634712
634716
634718
634722
635319
634724
634728
634730
635325
635331
634734
634736
634740
635337
634742
634746
634748
635343
635349
634752
634754
634758
635355
635361
635228
635232
635829
635835
635234
635238
635240
635841
635244
635246
635250
635847
635853
635252
635256
635258
635262
635859
635264
635268
635865
635871
635270
635274
635276
635280
635877
635282
635286
635288
635883
635889
635292
635294
635298
635895
635901
635300
635304
635306
635907
635310
635312
635316
635913
635919
635318
635322
635324
635328
635925
635330
635334
635336
635931
635937
635340
635342
635346
635943
635348
635352
635354
635949
635955
635358
635360
635364
635961
635967
635366
635832
635834
635838
635840
635844
635846
635850
635852
635856
635858
635862
635864
635868
635870
635874
635876
635880
635882
635886
635888
635892
635894
635898
635900
635904
635906
635910
635912
635916
635918
635922
635924
635928
635930
635934
635936
635940
635942
635946
635948
635952
635954
635958
635960
635964
635966
635970
635972
635976
1902739
1902745
1902751
1902757
1902763
1902769
1902775
1902781
1902787
1902793
1902799
1902805
1902811
1902817
1902823
1902829
1902835
1902841
1902847
1902853
1902859
1902865
1902871
1902877
653455
653459
653461
653465
653467
653471
653473
653477
653479
653483
653485
653489
653491
653495
653497
654041
654043
654047
653440
653444
653446
654049
654053
653450
653452
653456
654055
654059
654061
654065
653458
653462
653464
653468
654067
654071
654073
653470
653474
653476
654077
654079
654083
653480
653482
653486
654085
654089
654091
653488
653492
653494
654095
654097
654101
653498
653500
653504
654103
654107
654109
654113
653506
653510
654115
654119
654121
654125
654034
654637
654641
654038
654040
654044
654643
654647
654649
654653
654046
654050
654052
654655
654659
654056
654058
654062
654661
654665
654667
654671
654064
654068
654070
654074
654673
654677
654679
654076
654080
654082
654683
654685
654689
654086
654088
654092
654691
654695
654697
654094
654098
654100
654701
654703
654707
654104
654106
654110
654709
654713
654715
654719
654112
654116
654118
654122
654721
654725
654727
654124
654128
654731
654733
654737
654739
654632
655235
655237
654634
654638
654640
655241
655243
655247
654644
654646
654650
655249
655253
655255
655259
654652
654656
654658
655261
655265
654662
654664
654668
655267
655271
655273
655277
654670
654674
654676
654680
655279
655283
655285
654682
654686
654688
655289
655291
655295
654692
654694
654698
655297
655301
655303
654700
654704
654706
655307
655309
655313
654710
654712
654716
655315
655319
655321
655325
654718
654722
654724
654728
655327
655331
655333
654730
654734
655337
655339
655343
654736
654740
654742
655345
655349
655351
655355
655228
655835
655232
655234
655238
655837
655841
655843
655240
655244
655246
655847
655849
655853
655250
655252
655256
655855
655859
655861
655865
655258
655262
655264
655867
655871
655268
655270
655274
655873
655877
655879
655883
655276
655280
655282
655286
655885
655889
655891
655288
655292
655294
655895
655897
655901
655298
655300
655304
655903
655907
655909
655306
655310
655312
655913
655915
655919
655316
655318
655322
655921
655925
655927
655931
655324
655328
655330
655334
655933
655937
655939
655336
655340
655943
655945
655949
655342
655346
655348
655352
655951
655955
655957
655354
655961
655963
655967
655834
656437
656441
655838
655840
655844
656443
656447
656449
655846
655850
655852
656453
656455
656459
655856
655858
655862
656461
656465
656467
656471
655864
655868
655870
656473
656477
655874
655876
655880
656479
656483
656485
656489
655882
655886
655888
655892
656491
656495
656497
655894
655898
655900
656501
656503
656507
655904
655906
655910
656509
656513
656515
655912
655916
655918
656519
656521
656525
655922
655924
655928
656527
656531
656533
656537
655930
655934
655936
655940
656539
656543
656545
655942
655946
656549
656551
656555
655948
655952
655954
655958
656557
656561
656563
655960
655964
655966
656567
656569
656573
656575
656434
656438
656440
657043
657047
656444
656446
656450
657049
657053
657055
656452
656456
656458
657059
657061
657065
656462
656464
656468
657067
657071
657073
657077
656470
656474
656476
657079
657083
656480
656482
656486
657085
657089
657091
657095
656488
656492
656494
656498
657097
657101
657103
656500
656504
656506
657107
657109
657113
656510
656512
656516
657115
657119
657121
656518
656522
656524
657125
657127
657131
656528
656530
656534
657133
657137
657139
657143
656536
656540
656542
656546
657145
657149
657151
656548
656552
657155
657157
657161
656554
656558
656560
656564
657163
657167
657169
656566
656570
656572
657173
657175
657179
656576
657181
657040
657044
657046
657050
657052
657056
657058
657062
657064
657068
657070
657074
657076
657080
657082
657086
657088
657092
657094
657098
657100
657104
657106
657110
657112
657116
657118
657122
657124
657128
657130
657134
657136
657140
657142
657146
657148
657152
657154
657158
657160
657164
657166
657170
657172
657176
657178
657182
653457
653463
674671
674677
653469
653475
674683
653481
674689
674695
653487
653493
674701
654039
675253
653448
654045
654051
675259
653454
653460
654057
675265
675271
653466
654063
654069
675277
675283
653472
653478
654075
654081
675289
653484
654087
675295
675301
653490
653496
654093
654099
675307
653502
653508
654105
675313
675319
654111
654117
675325
654633
654639
675847
654042
654048
654645
675853
675859
654054
654651
654657
675865
654060
654066
654663
675871
675877
654072
654669
654675
675883
675889
654078
654084
654681
654687
675895
654090
654693
675901
675907
654096
654102
654699
654705
675913
654108
654114
654711
675919
675925
654120
654717
654723
675931
675937
654126
654729
675943
654735
655233
676447
654636
654642
655239
655245
676453
654648
654654
655251
676459
676465
654660
655257
655263
676471
654666
654672
655269
676477
676483
654678
655275
655281
676489
676495
654684
654690
655287
655293
676501
654696
655299
676507
676513
654702
654708
655305
655311
676519
654714
654720
655317
676525
676531
654726
655323
655329
676537
676543
654732
654738
655335
676549
654744
655341
655347
676555
676561
655833
655236
655839
677047
677053
655242
655248
655845
655851
677059
655254
655260
655857
677065
677071
655266
655863
655869
677077
655272
655278
655875
677083
677089
655284
655881
655887
677095
677101
655290
655296
655893
655899
677107
655302
655905
677113
677119
655308
655314
655911
655917
677125
655320
655326
655923
677131
677137
655332
655929
655935
677143
677149
655338
655344
655941
677155
655350
655947
655953
677161
677167
655356
655959
677173
655836
656439
655842
656445
677653
677659
655848
655854
656451
656457
677665
655860
655866
656463
677671
677677
655872
656469
656475
677683
655878
655884
656481
677689
677695
655890
656487
656493
677701
677707
655896
655902
656499
656505
677713
655908
656511
677719
677725
655914
655920
656517
656523
677731
655926
655932
656529
677737
677743
655938
656535
656541
677749
677755
655944
655950
656547
677761
655956
656553
656559
677767
677773
655962
655968
656565
656571
677779
656442
657039
657045
678253
656448
657051
678259
678265
656454
656460
657057
657063
678271
656466
656472
657069
678277
678283
656478
657075
657081
678289
656484
656490
657087
678295
678301
656496
657093
657099
678307
678313
656502
656508
657105
657111
678319
656514
657117
678325
678331
656520
656526
657123
657129
678337
656532
656538
657135
678343
678349
656544
657141
657147
678355
678361
656550
656556
657153
678367
656562
657159
657165
678373
678379
656568
656574
657171
657177
678385
678391
657048
657054
657060
657066
657072
657078
657084
657090
657096
657102
657108
657114
657120
657126
657132
657138
657144
657150
657156
657162
657168
657174
657180
674681
674687
674693
675257
674656
675261
675263
674662
674666
675267
675269
675275
674668
674672
674674
674678
675273
675279
675281
674680
674684
674686
675285
675287
675291
675293
674690
674692
674696
675297
675299
674698
674702
674704
675303
675305
675309
675311
674708
674710
675315
675317
675323
675321
675329
675851
675250
675254
675855
675857
675863
675256
675260
675262
675861
675867
675869
675266
675268
675272
675873
675875
675881
675274
675278
675280
675284
675879
675885
675887
675286
675290
675292
675891
675893
675897
675899
675296
675298
675302
675903
675905
675304
675308
675310
675909
675911
675915
675917
675314
675316
675320
675921
675923
675929
675322
675326
675328
675332
675927
675933
675935
675334
675939
675941
675947
675844
675848
675850
676449
676451
676455
676457
675854
675856
675860
676461
676463
676469
675862
675866
675868
676467
676473
676475
675872
675874
675878
676479
676481
676487
675880
675884
675886
675890
676485
676491
676493
675892
675896
675898
676497
676499
676503
676505
675902
675904
675908
676509
676511
675910
675914
675916
676515
676517
676521
676523
675920
675922
675926
676527
676529
676535
675928
675932
675934
675938
676533
676539
676541
675940
675944
676545
676547
676553
675946
675950
676551
676559
676444
676448
677049
677051
676450
676454
676456
677055
677057
677061
677063
676460
676462
676466
677067
677069
677075
676468
676472
676474
677073
677079
677081
676478
676480
676484
677085
677087
677093
676486
676490
676492
676496
677091
677097
677099
676498
676502
676504
677103
677105
677109
677111
676508
676510
676514
677115
677117
676516
676520
676522
677121
677123
677127
677129
676526
676528
676532
677133
677135
677141
676534
676538
676540
676544
677139
677145
677147
676546
676550
677151
677153
677159
676552
676556
676558
676562
677157
677163
677165
677171
677044
677649
677651
677048
677050
677054
677655
677657
677056
677060
677062
677661
677663
677667
677669
677066
677068
677072
677673
677675
677681
677074
677078
677080
677679
677685
677687
677084
677086
677090
677691
677693
677699
677092
677096
677098
677102
677697
677703
677705
677104
677108
677110
677709
677711
677715
677717
677114
677116
677120
677721
677723
677122
677126
677128
677727
677729
677733
677735
677132
677134
677138
677739
677741
677747
677140
677144
677146
677150
677745
677751
677753
677152
677156
677757
677759
677765
677158
677162
677164
677168
677763
677769
677771
677170
677775
677777
677783
677650
678255
678257
677654
677656
677660
678261
678263
677662
677666
677668
678267
678269
678273
678275
677672
677674
677678
678279
678281
678287
677680
677684
677686
678285
678291
678293
677690
677692
677696
678297
678299
678305
677698
677702
677704
677708
678303
678309
678311
677710
677714
677716
678315
678317
678321
678323
677720
677722
677726
678327
678329
677728
677732
677734
678333
678335
678339
678341
677738
677740
677744
678345
678347
678353
677746
677750
677752
677756
678351
678357
678359
677758
677762
678363
678365
678371
677764
677768
677770
677774
678369
678375
678377
677776
677780
677782
678381
678383
678389
678256
678260
678262
678266
678268
678272
678274
678278
678280
678284
678286
678290
678292
678296
678298
678302
678304
678308
678310
678314
678316
678320
678322
678326
678328
678332
678334
678338
678340
678344
678346
678350
678352
678356
678358
678362
678364
678368
678370
678374
678376
678380
678382
678386
678388
696475
696481
674676
696487
696493
674682
674688
696499
674694
696505
696511
674700
696517
696523
675258
697069
675264
696472
697075
675270
675276
696478
697081
697087
675282
696484
696490
697093
697099
675288
675294
696496
696502
697105
675300
696508
697111
697117
675306
675312
696514
696520
697123
675318
675324
696526
697129
697135
675330
696532
697141
697147
675852
697663
675858
675864
697066
697669
697675
675870
697072
697078
697681
675876
675882
697084
697687
697693
675888
697090
697096
697699
697705
675894
675900
697102
697108
697711
675906
697114
697717
697723
675912
675918
697120
697126
697729
675924
675930
697132
697735
697741
675936
697138
697144
697747
697753
675942
675948
697150
697759
698263
676452
676458
697660
697666
698269
676464
676470
697672
698275
698281
676476
697678
697684
698287
676482
676488
697690
698293
698299
676494
697696
697702
698305
698311
676500
676506
697708
697714
698317
676512
697720
698323
698329
676518
676524
697726
697732
698335
676530
676536
697738
698341
698347
676542
697744
697750
698353
698359
676548
676554
697756
698365
676560
697762
698371
677052
698869
677058
677064
698266
698272
698875
677070
677076
698278
698881
698887
677082
698284
698290
698893
677088
677094
698296
698899
698905
677100
698302
698308
698911
698917
677106
677112
698314
698320
698923
677118
698326
698929
698935
677124
677130
698332
698338
698941
677136
677142
698344
698947
698953
677148
698350
698356
698959
698965
677154
677160
698362
698971
677166
698368
698374
698977
698983
677172
677658
698866
699469
699475
677664
677670
698872
698878
699481
677676
677682
698884
699487
699493
677688
698890
698896
699499
677694
677700
698902
699505
699511
677706
698908
698914
699517
699523
677712
677718
698920
698926
699529
677724
698932
699535
699541
677730
677736
698938
698944
699547
677742
677748
698950
699553
699559
677754
698956
698962
699565
699571
677760
677766
698968
699577
677772
698974
698980
699583
699589
677778
678264
699472
678270
678276
699478
699484
678282
678288
699490
678294
699496
699502
678300
678306
699508
678312
699514
699520
678318
678324
699526
699532
678330
699538
678336
678342
699544
699550
678348
678354
699556
678360
699562