ITEM: TIMESTEP
0
ITEM: NUMBER OF ATOMS
49200
ITEM: BOX BOUNDS pp ff pp
0.0000000000000000e+00 5.3225831169999999e+01
0.0000000000000000e+00 8.0759506000000002e+01
0.0000000000000000e+00 1.3987956760000000e+02
ITEM: ATOMS id x y z c_peratom c_stress[4]
34 1.41394 2.03013 1.15349 -4.13245 7383.44
35 0.583173 0.0392097 2.31678 -3.44047 3530.88
38 2.23898 2.02905 3.48631 -4.13207 6710.54
41 3.0597 0.0358093 2.32145 -3.44047 2182
40 3.88875 2.02694 1.15771 -4.13233 4094.65
44 4.71353 2.02612 3.49039 -4.13235 3885.82
46 6.36368 2.02466 1.16159 -4.13234 3137.77
47 5.53613 0.0331364 2.32563 -3.44031 1000.43
50 7.18854 2.02429 3.49417 -4.13244 2836.78
53 8.01222 0.0318075 2.32947 -3.44032 790.329
52 8.83864 2.02348 1.16498 -4.13236 1159.97
55 9.66335 0.0311824 0.00035668 -3.44025 -108.818
56 9.66367 2.02336 3.49736 -4.13247 840.042
58 11.3138 2.02314 1.16763 -4.13239 -33.3603
59 10.4886 0.0311343 2.33264 -3.44016 -199.189
61 12.1397 0.0312456 0.00273477 -3.44007 -592.384
62 12.1389 2.0232 3.49967 -4.13242 94.654
64 13.7891 2.024 1.16948 -4.13244 -198.898
65 12.965 0.0316459 2.33467 -3.43997 100.738
67 14.6161 0.0327532 0.00449706 -3.44009 43.3616
68 14.6141 2.02472 3.50157 -4.1324 -27.4639
70 16.2643 2.02662 1.17192 -4.13244 -655.11
71 15.4415 0.0335673 2.33672 -3.44022 293.759
73 17.0925 0.0355645 0.00755149 -3.44031 -479.351
74 17.0893 2.02759 3.50427 -4.13238 -1023.81
76 18.7394 2.03006 1.17521 -4.13245 -2242.02
77 17.9179 0.0367689 2.33999 -3.4403 -823.913
79 19.5685 0.03923 0.0113778 -3.44025 -639.095
80 19.5642 2.03139 3.50776 -4.1323 -2331.1
83 20.3939 0.040823 2.34398 -3.4403 -730.665
82 21.2143 2.0346 1.17895 -4.13236 -3339.89
85 22.0448 0.0441919 0.0152572 -3.44035 -1509.97
86 22.0391 2.03635 3.5116 -4.13232 -3763.62
89 22.8704 0.0462496 2.34795 -3.44048 -1721.48
88 23.6889 2.04037 1.18284 -4.13206 -6014.93
91 24.5216 0.0502975 0.0196189 -3.44066 -3154.94
92 24.5139 2.04242 3.51555 -4.13244 -6577.89
94 26.1633 2.04738 1.18738 -4.13157 -7963.98
95 25.3471 0.0525843 2.35239 -3.44045 -3064.51
97 26.9995 0.0580764 0.0246414 -3.44133 -6131.39
98 26.9888 2.05037 3.52048 -4.13286 -7442.7
100 28.6364 2.05705 1.19326 -4.13 -8653.84
101 27.8245 0.0609919 2.35806 -3.44053 -3708.39
103 29.4795 0.0691292 0.0315714 -3.44337 -13623.3
104 29.4638 2.06143 3.52687 -4.1343 -7853.96
106 31.107 2.06999 1.20095 -4.12666 -10102.7
107 30.3024 0.0725566 2.36583 -3.4401 -5048.69
109 31.9641 0.083469 0.0405716 -3.44684 -31406.1
110 31.9401 2.07646 3.53536 -4.13862 -4149.41
112 33.5708 2.08868 1.21067 -4.11658 -3311.81
113 32.7797 0.0887847 2.37603 -3.43758 701.833
115 34.4595 0.10404 0.0543651 -3.46115 -85949
116 34.4221 2.0995 3.5494 -4.15984 -8478.32
119 35.2554 0.11882 2.39176 -3.42061 137138
118 36.0169 2.11773 1.23089 -4.12841 -45238.8
2 40.6998 2.10493 3.413 -3.31017 -154675
121 36.9793 0.175452 0.0767648 -3.29733 -82495.8
122 36.925 2.13707 3.56294 -4.0182 201993
124 38.4539 2.13271 1.25802 -3.30983 76570.5
125 37.6652 0.0959942 2.47442 -2.92745 -239065
4 42.2288 2.11072 1.10787 -4.01817 -203353
5 41.4908 0.0690156 2.19688 -2.92678 199985
8 43.1368 2.0924 3.4397 -4.12841 43276.1
11 43.9007 0.0943614 2.279 -3.42059 -136902
10 44.7317 2.07579 1.1208 -4.15983 8261.49
14 45.583 2.06587 3.45927 -4.1166 2881.87
16 47.2137 2.05536 1.13432 -4.13865 3546.54
17 46.3765 0.0668581 2.29417 -3.43752 -664.926
20 48.0468 2.04978 3.46857 -4.12661 9131.18
23 48.8537 0.0532681 2.30387 -3.44007 5316.2
22 49.69 2.04306 1.14234 -4.13429 7718.39
26 50.5174 2.03971 3.47582 -4.13002 8897.18
28 52.165 2.03504 1.14854 -4.13285 7741.27
29 51.3317 0.0446223 2.31119 -3.4405 4163.74
32 52.9904 2.03304 3.48159 -4.13158 8263.01
160 1.42359 6.06952 1.15546 -4.12245 -548.473
161 0.595086 4.05154 2.31896 -4.12236 3677.34
164 2.24777 6.06819 3.48809 -4.12214 -135.276
167 3.06815 4.04773 2.32296 -4.12221 3565.24
166 3.89566 6.06599 1.15909 -4.12224 -99.049
170 4.71964 6.06507 3.49148 -4.12235 -47.4431
172 6.36789 6.06356 1.16227 -4.12221 68.4536
173 5.54172 4.04505 2.32659 -4.12212 2429.04
176 7.19221 6.06305 3.49455 -4.12256 -209.76
179 8.01521 4.04345 2.32981 -4.12199 1374.31
178 8.84046 6.06221 1.16514 -4.12238 -749.763
181 9.66446 4.04292 0.000355478 -4.12212 240.806
182 9.66489 6.06202 3.49726 -4.12249 -837.1
184 11.3132 6.06178 1.16732 -4.1224 -942.238
185 10.4891 4.04273 2.33242 -4.12197 -147.851
187 12.1384 4.04284 0.00249883 -4.12216 -632.274
188 12.1378 6.06183 3.49928 -4.12247 -677.828
190 13.7859 6.06263 1.16933 -4.12249 540.872
191 12.9629 4.04311 2.33447 -4.12197 -115.634
193 14.6124 4.04437 0.00446957 -4.12208 291.795
194 14.6105 6.06336 3.50127 -4.12241 859.028
196 16.2588 6.0653 1.17123 -4.12248 1077.17
197 15.4367 4.04512 2.33654 -4.12197 549.881
199 17.0862 4.04727 0.00687 -4.12199 -464.56
200 17.0832 6.06639 3.50336 -4.12238 818.958
202 18.7313 6.06888 1.17393 -4.12255 464.917
203 17.9105 4.04839 2.33916 -4.12201 -1079.93
205 19.5596 4.05126 0.00986185 -4.12194 -1629.09
206 19.5556 6.07024 3.50616 -4.12223 333.384
209 20.384 4.05265 2.34233 -4.12212 -1742.58
208 21.2037 6.07355 1.17694 -4.12233 401.583
211 22.0329 4.05623 0.0133152 -4.12194 -2202.83
212 22.0276 6.07538 3.5093 -4.12224 695.74
215 22.8574 4.05804 2.34589 -4.12218 -2711.75
214 23.6754 6.07949 1.18036 -4.12212 999.438
217 24.5058 4.06244 0.0170189 -4.12195 -3264.11
218 24.4995 6.08182 3.51296 -4.12244 1258.13
220 26.1463 6.08737 1.18467 -4.12173 3798.65
221 25.3303 4.06486 2.34978 -4.12236 -3137.25
223 26.9783 4.07067 0.0217969 -4.12228 -1413.57
224 26.9708 6.09041 3.51767 -4.1228 5181.28
226 28.6161 6.09761 1.19024 -4.12028 10092.6
227 27.8031 4.07391 2.35501 -4.12271 -1249.09
229 29.4505 4.08189 0.028189 -4.12367 2885.96
230 29.4422 6.10164 3.5236 -4.12429 12580.1
232 31.0831 6.1111 1.19712 -4.11662 20385.7
233 30.2753 4.08628 2.36171 -4.12308 3615.2
235 31.9231 4.09711 0.036383 -4.12802 13422
236 31.9154 6.11639 3.53078 -4.12831 24680.5
239 32.7466 4.10298 2.37106 -4.12359 21774.1
238 33.5442 6.12933 1.20584 -4.10177 33232.5
241 34.3998 4.12133 0.0492478 -4.15599 77080.4
242 34.3957 6.13658 3.54027 -4.15707 58409.3
245 35.2189 4.12894 2.38209 -4.10224 71069.6
244 35.9912 6.15562 1.2161 -4.12913 90905.3
128 40.7012 6.12705 3.45929 -3.25777 -30608.2
247 36.9046 4.16567 0.0698754 -3.98091 146955
248 36.9083 6.15513 3.54378 -4.0009 56516.2
250 38.4476 6.15471 1.21011 -3.25777 -44207.9
251 37.6287 4.14596 2.39061 -3.51402 -5454.39
130 42.2405 6.12888 1.12565 -4.00096 -58493.4
131 41.5225 4.11889 2.27954 -3.51382 -84939.6
134 43.1577 6.13032 3.45325 -4.12912 -91339.6
137 43.9324 4.10443 2.28767 -4.10223 -71121
136 44.7531 6.11296 1.1289 -4.15709 -58061.1
140 45.6046 6.10665 3.46322 -4.10176 -33427.7
142 47.2333 6.09546 1.13799 -4.12831 -24851
143 46.4047 4.08119 2.29821 -4.12361 -22583.9
146 48.0656 6.09103 3.4716 -4.11664 -20782.5
149 48.876 4.06706 2.30721 -4.12309 -4087.24
148 49.7065 6.08338 1.145 -4.12431 -12650.1
152 50.5326 6.08033 3.47832 -4.12034 -9980.88
154 52.1779 6.0751 1.15083 -4.12283 -4849.51
155 51.3481 4.05758 2.31372 -4.12271 1399.22
158 53.0025 6.07304 3.48382 -4.12169 -3465.89
286 1.42814 10.1092 1.1558 -4.12252 -3723.89
287 0.60286 8.09103 2.31985 -4.12262 -7889.5
290 2.252 10.1078 3.4883 -4.12218 633.947
293 3.07395 8.08674 2.32377 -4.12256 -3817.56
292 3.89896 10.1054 1.1592 -4.12236 -8125.44
296 4.72249 10.1044 3.49158 -4.12236 -8976.06
298 6.36974 10.103 1.16241 -4.12226 -24121.1
299 5.54555 8.08381 2.32697 -4.12248 -3050.91
302 7.19343 10.1023 3.49464 -4.1225 -17102.2
305 8.01709 8.08211 2.32991 -4.12226 -2617.87
304 8.84084 10.1014 1.16497 -4.12236 17389.7
307 9.66493 8.08142 0.000205953 -4.12246 -2226.04
308 9.66469 10.1011 3.49704 -4.12242 18677.6
310 11.312 10.101 1.16701 -4.1224 18719
311 10.4889 8.0813 2.33221 -4.12224 -2029.26
313 12.137 8.08134 0.00211198 -4.12243 -1000.76
314 12.136 10.1013 3.49906 -4.12243 18817
316 13.7831 10.1022 1.1688 -4.12242 -991.501
317 12.9608 8.08177 2.33409 -4.12231 -282.81
319 14.6087 8.08293 0.00398138 -4.12241 1258.53
320 14.607 10.1028 3.5008 -4.12241 -378.886
322 16.2542 10.1047 1.17064 -4.12247 -295.843
323 15.4325 8.08385 2.33588 -4.12226 1650.73
325 17.0805 8.08597 0.00588787 -4.12241 1933.58
326 17.078 10.1058 3.50266 -4.12236 40575.4
328 18.7253 10.1084 1.17275 -4.12247 9423.65
329 17.9041 8.08724 2.33807 -4.12222 2102.68
331 19.5519 8.09003 0.00849125 -4.12219 2778.71
332 19.5489 10.11 3.50493 -4.12227 15668.8
335 20.3754 8.09155 2.34087 -4.12248 3067.84
334 21.1961 10.1131 1.17572 -4.12239 20107.1
337 22.0231 8.09516 0.0116645 -4.12226 4008.32
338 22.0196 10.1151 3.50811 -4.12236 23911.9
341 22.8469 8.09725 2.34408 -4.12256 4698.74
340 23.6665 10.1193 1.17934 -4.1222 24848.5
343 24.4942 8.10181 0.0154869 -4.12257 7095.39
344 24.4903 10.1217 3.512 -4.1225 30616.2
346 26.1368 10.1271 1.18364 -4.12186 27588.6
347 25.3178 8.10445 2.34835 -4.12263 8746
349 26.965 8.11042 0.0201848 -4.12273 12618.9
350 26.9611 10.13 3.51651 -4.12279 17046.7
352 28.6065 10.1365 1.18839 -4.12043 29305
353 27.7887 8.11377 2.35333 -4.123 15931.8
355 29.4361 8.12115 0.0256208 -4.12411 22349.4
356 29.4325 10.1401 3.52137 -4.12411 33064.3
358 31.0747 10.1478 1.19335 -4.11669 13272.2
359 30.2598 8.12553 2.35894 -4.12356 28397.6
361 31.9091 8.13481 0.0318567 -4.1283 35407.2
362 31.9064 10.1522 3.52648 -4.12828 33248.5
365 32.7311 8.14068 2.36568 -4.12418 51848.3
364 33.538 10.1603 1.19749 -4.1011 39572.1
367 34.3902 8.15128 0.03785 -4.15782 65528.2
368 34.3887 10.1656 3.53031 -4.15643 62097.2
371 35.2056 8.15867 2.37157 -4.09383 69402.5
370 35.989 10.1709 1.1977 -4.13481 32700.8
254 40.7026 10.1431 3.47698 -3.24325 -41680.8
373 36.9047 8.16571 0.0391829 -3.99623 34849.8
374 36.9047 10.1719 3.52807 -3.99893 12563.7
376 38.442 10.1709 1.19234 -3.24339 -38886.3
377 37.6171 8.16286 2.36757 -3.51893 -20218.6
256 42.24 10.1457 1.1412 -3.99893 -15673.3
257 41.5295 8.136 2.30152 -3.51878 -61229.4
260 43.1556 10.1457 3.47152 -4.13482 -25308.8
263 43.941 8.13424 2.29752 -4.09387 -68589.9
262 44.7559 10.1422 1.13873 -4.15644 -45517
266 45.6065 10.1378 3.47136 -4.10107 -52735.8
268 47.2381 10.1315 1.14213 -4.12826 -41559.2
269 46.4154 8.11897 2.3031 -4.12423 -51436.5
272 48.0697 10.128 3.47519 -4.1167 -14021.4
275 48.8867 8.10652 2.30953 -4.12358 -28004.8
274 49.7118 10.1221 1.14689 -4.12409 -11036.1
278 50.5377 10.1194 3.47983 -4.12043 -16488.6
280 52.1833 10.1147 1.15155 -4.12277 854.891
281 51.3577 8.09757 2.315 -4.12298 -15113.7
284 53.0075 10.1127 3.48437 -4.12189 -12048.4
412 1.42846 14.1479 1.15652 -4.12248 13620.3
413 0.605325 12.1303 2.32057 -4.12259 923.23
416 2.2522 14.1467 3.48891 -4.12221 -42258.1
419 3.07591 12.1262 2.32388 -4.12251 -13495.8
418 3.89917 14.1447 1.15952 -4.12231 -13417.3
422 4.7225 14.1438 3.49187 -4.12241 -5969.86
424 6.36951 14.1423 1.16243 -4.12229 -6265.38
425 5.54642 12.1233 2.32697 -4.12242 6985.7
428 7.19318 14.1417 3.49463 -4.12251 -2912.32
431 8.01694 12.1214 2.32973 -4.12229 -36623.1
430 8.83991 14.1408 1.16492 -4.12238 6308.8
434 9.66349 14.1406 3.49703 -4.12248 8138.77
436 11.3101 14.1407 1.16709 -4.1224 9321.65
437 10.4876 12.1205 2.33205 -4.12234 31863.9
439 12.1351 12.1209 0.00199563 -4.12251 -6424.02
440 12.134 14.1409 3.49893 -4.12249 -5960.13
442 13.7803 14.1419 1.16871 -4.12246 -9217.29
443 12.9583 12.1213 2.33391 -4.12225 -7425.46
445 14.6057 12.1226 0.00370976 -4.12244 1202.84
446 14.6042 14.1426 3.50043 -4.1224 -5245.6
448 16.2507 14.1443 1.17026 -4.12246 36876.7
449 15.429 12.1233 2.33561 -4.12231 10912.7
451 17.0762 12.1256 0.00552608 -4.12232 -23035.8
452 17.0744 14.1455 3.50216 -4.12236 5277.66
454 18.7211 14.148 1.17216 -4.12254 -1869
455 17.8996 12.1268 2.3375 -4.12232 10215.7
457 19.5467 12.1297 0.00770795 -4.12229 18685.9
458 19.5447 14.1495 3.50435 -4.12227 10082.6
461 20.37 12.1313 2.34001 -4.1224 19270.6
460 21.1916 14.1528 1.17491 -4.12242 -20113.3
463 22.017 12.1348 0.010738 -4.1224 7301.42
464 22.0149 14.1546 3.50728 -4.12233 -5246.5
467 22.8405 12.1369 2.34329 -4.12253 9600.47
466 23.6619 14.1584 1.17799 -4.12219 12026.7
469 24.4876 12.1412 0.0143944 -4.12245 4857.78
470 24.4856 14.1605 3.51047 -4.12245 36461.7
472 26.1324 14.1649 1.18137 -4.1218 18618.9
473 25.311 12.1437 2.34702 -4.12258 12127.8
475 26.9584 12.1488 0.0183578 -4.12273 23903.5
476 26.9566 14.1675 3.51382 -4.12268 26490.8
478 28.6026 14.1726 1.18476 -4.12033 19865.4
479 27.7823 12.1518 2.3511 -4.12315 29356
481 29.4303 12.158 0.0225173 -4.12424 35014.2
482 29.4286 14.1755 3.51718 -4.1241 25730.7
484 31.0716 14.1809 1.18756 -4.11636 10659.2
485 30.2545 12.1614 2.35521 -4.12376 68716
487 31.9051 12.1681 0.0261696 -4.12846 41528
488 31.9038 14.1837 3.51964 -4.12855 4607.75
491 32.7279 12.1717 2.35849 -4.12405 10743.8
490 33.536 14.1882 1.18874 -4.10083 -5567.21
493 34.3887 12.1775 0.0275454 -4.15756 40843
494 34.3879 14.1908 3.5199 -4.15752 55097.2
497 35.2046 12.18 2.35895 -4.09504 43083.1
496 35.988 14.1927 1.18652 -4.13561 3314.68
380 40.6999 14.1643 3.48694 -3.24134 -36353.4
499 36.9047 12.1825 0.0250614 -3.99834 14290.4
500 36.904 14.1937 3.51699 -3.9987 2338.26
502 38.4397 14.1925 1.1822 -3.24144 -6704.19
503 37.6153 12.1819 2.35474 -3.51921 -28215.9
382 42.2358 14.1673 1.15201 -3.99868 81.9083
383 41.5272 12.1548 2.31468 -3.51915 -39280.5
386 43.1518 14.1674 3.48236 -4.13561 -17514.8
389 43.9378 12.1557 2.31012 -4.09503 -46235
388 44.7517 14.1673 1.14876 -4.15751 -38882.5
392 45.6036 14.1657 3.47972 -4.10084 2939.86
394 47.2358 14.1631 1.1486 -4.12854 -39005.2
395 46.4143 12.1501 2.31018 -4.12403 -40002.5
398 48.0681 14.1611 3.48058 -4.11641 -18249.6
401 48.8876 12.1425 2.31311 -4.12375 -15355.4
400 49.711 14.1574 1.15072 -4.12414 -47885.4
404 50.5371 14.1556 3.48295 -4.12029 -28535
406 52.1833 14.1522 1.15346 -4.12267 -14602.1
407 51.3599 12.1357 2.31678 -4.12315 -30085.4
410 53.0075 14.1506 3.48579 -4.12181 -22671.3
538 1.42536 18.1853 1.15801 -4.12246 -50316.7
539 0.603493 16.168 2.322 -4.12268 -8098.28
542 2.24935 18.1846 3.4901 -4.12218 -45277.3
545 3.07468 16.1649 2.32462 -4.1226 -29691.9
544 3.89675 18.183 1.1603 -4.12227 -20979.5
548 4.72017 18.1825 3.4924 -4.12243 -21802
550 6.36738 18.1813 1.16251 -4.12227 14012.5
551 5.54547 16.1625 2.32737 -4.12244 -8675.06
554 7.19096 18.181 3.49454 -4.12256 -11615
557 8.01577 16.1609 2.32983 -4.12227 -6406.52
556 8.83772 18.1806 1.16451 -4.12242 -42136.5
560 9.66132 18.1807 3.49638 -4.12244 -32518.3
562 11.3076 18.181 1.16628 -4.12242 -22426.3
563 10.4858 16.1605 2.33181 -4.1223 7037.92
565 12.1327 16.1609 0.00169535 -4.12241 -3707.29
566 12.1314 18.1813 3.49818 -4.12241 16665.5
568 13.7773 18.1822 1.16799 -4.12243 -1897.26
569 12.9558 16.1614 2.33352 -4.12224 -13195.3
571 14.6024 16.1626 0.00315641 -4.12236 5434.7
572 14.6012 18.1828 3.49985 -4.12243 -348
574 16.2476 18.1844 1.1697 -4.12245 12786.8
575 15.4258 16.1634 2.33498 -4.12227 17106.4
577 17.0724 16.1654 0.00477758 -4.12243 2050.4
578 17.0712 18.1853 3.50157 -4.12244 7234.22
580 18.7179 18.1874 1.17155 -4.12256 999.767
581 17.8958 16.1666 2.3367 -4.12226 11519.4
583 19.5428 16.1693 0.00693974 -4.12231 22441
584 19.5416 18.1887 3.50357 -4.12225 23085.7
587 20.3661 16.1708 2.33904 -4.12248 13082.1
586 21.1886 18.1916 1.1735 -4.12239 -9172.44
589 22.0133 16.174 0.00950438 -4.1223 13544.6
590 22.012 18.193 3.50557 -4.12227 8927.82
593 22.8369 16.1757 2.34168 -4.12256 6404.29
592 23.6593 18.1963 1.17571 -4.12218 37223.7
595 24.4842 16.1794 0.0122912 -4.12243 1806.54
596 24.4833 18.198 3.50788 -4.12247 29771.2
598 26.1301 18.2017 1.17827 -4.12181 6101.75
599 25.3079 16.1814 2.3445 -4.1227 -6456.68
601 26.9553 16.1857 0.0151618 -4.1227 28580.2
602 26.9546 18.2035 3.51035 -4.12271 29666.5
604 28.601 18.2073 1.1805 -4.12032 47730.3
605 27.7795 16.1879 2.34742 -4.1231 52368
607 29.4276 16.1926 0.0176567 -4.12408 17301.9
608 29.4273 18.2094 3.51231 -4.12412 -360.478
610 31.0706 18.2127 1.18157 -4.11623 20836.1
611 30.2524 16.1948 2.34964 -4.12384 -7913.29
613 31.9032 16.1991 0.0190852 -4.12856 24887.7
614 31.9032 18.2143 3.5129 -4.12863 6001.77
617 32.7267 16.201 2.35048 -4.12394 7492.99
616 33.5353 18.2167 1.18107 -4.10075 11882.8
619 34.3877 16.2041 0.0184396 -4.15776 20809.9
620 34.3878 18.2178 3.51182 -4.15789 50121
623 35.2039 16.205 2.34913 -4.09517 39883.5
622 35.9872 18.2186 1.17856 -4.13562 14929.8
506 40.6955 18.189 3.49375 -3.24226 -12025.5
625 36.9037 16.2061 0.015639 -3.99868 1484.86
626 36.9037 18.2191 3.50881 -3.99876 4791.32
628 38.4381 18.2182 1.17465 -3.24241 -34593.7
629 37.6143 16.2055 2.34545 -3.51981 -32332.1
508 42.2302 18.192 1.15927 -3.99876 -1938.28
509 41.5225 16.178 2.3231 -3.51974 -15395.4
512 43.1466 18.1928 3.48947 -4.13566 13557.8
515 43.9329 16.1804 2.31913 -4.09519 -41257.6
514 44.7461 18.1942 1.15602 -4.15783 -7784.61
518 45.5986 18.194 3.48665 -4.10082 -49974.2
520 47.2309 18.1934 1.15468 -4.12866 -24032.4
521 46.4101 16.1793 2.31752 -4.12393 -8978.81
524 48.0634 18.1927 3.48599 -4.11622 -24549.2
527 48.8846 16.1757 2.31808 -4.1238 -18529.3
526 49.7069 18.191 1.15498 -4.12405 -21526
530 50.5332 18.19 3.48659 -4.12034 -26483.2
532 52.1796 18.188 1.15619 -4.1227 -23548.4
533 51.3576 16.1716 2.31971 -4.1231 -37315
536 53.0041 18.1871 3.48803 -4.12178 -12627.5
664 1.42045 22.2213 1.15962 -4.12243 -15956.5
665 0.599298 20.204 2.32409 -4.12264 -11204.5
668 2.24458 22.2209 3.49141 -4.1222 -15251.4
671 3.07096 20.2023 2.32576 -4.12254 -17887.7
670 3.89213 22.2203 1.16102 -4.12232 -20404.4
674 4.71579 22.22 3.49282 -4.1224 -15329.6
676 6.36304 22.2197 1.16246 -4.1223 -4756.56
677 5.54214 20.2009 2.32761 -4.1224 -41555.1
680 7.18672 22.2197 3.4943 -4.12253 -11567.4
683 8.01262 20.2003 2.32928 -4.12227 -9792.47
682 8.83374 22.2198 1.16389 -4.12241 -26229.6
686 9.65725 22.2199 3.49575 -4.12244 12453.4
688 11.3041 22.2206 1.16537 -4.12245 -862.852
689 10.4826 20.2005 2.3309 -4.12229 18141.4
691 12.1298 20.2012 0.000734686 -4.12244 2331.87
692 12.1279 22.221 3.49729 -4.1224 -12570
694 13.7745 22.2218 1.16719 -4.12239 7533.91
695 12.953 20.2017 2.33267 -4.12236 -10695
697 14.5998 20.2026 0.00260451 -4.12242 -8792.83
698 14.5982 22.2224 3.49913 -4.12241 -440.266
700 16.2451 22.2237 1.16881 -4.12237 -23372.4
701 15.4233 20.2033 2.3345 -4.12234 20977.2
703 17.07 20.2049 0.00429618 -4.12246 2651.62
704 17.0685 22.2245 3.5006 -4.12242 8999.02
706 18.7155 22.2262 1.17023 -4.12252 -9784.87
707 17.8933 20.2058 2.33621 -4.12224 2638.62
709 19.5404 20.208 0.00589999 -4.12228 -14076.9
710 19.5391 22.2272 3.50204 -4.12228 -30818.6
713 20.3636 20.2092 2.33778 -4.12238 31474.6
712 21.1864 22.2293 1.17164 -4.12241 44209.6
715 22.011 20.2118 0.00753564 -4.12228 22975.8
716 22.0099 22.2305 3.50345 -4.12233 11444.6
719 22.8347 20.2132 2.33949 -4.12256 7182.98
718 23.6574 22.233 1.1732 -4.12222 14513.6
721 24.4825 20.2163 0.00955667 -4.12245 14065.3
722 24.4815 22.2344 3.50516 -4.1225 -6027.41
724 26.1289 22.237 1.17484 -4.1218 -21827.6
725 25.3061 20.2179 2.34159 -4.12264 6281.13
727 26.9541 20.2211 0.0116411 -4.12272 -10215.9
728 26.9535 22.2384 3.50665 -4.12268 -8902.65
730 28.6003 22.2409 1.17589 -4.12027 2981.5
731 27.7785 20.2226 2.34346 -4.12319 7677.27
733 29.4272 20.2257 0.0128883 -4.12411 28648.3
734 29.4268 22.2421 3.50737 -4.12417 8154.56
736 31.0702 22.2442 1.17607 -4.11628 25249.4
737 30.252 20.2271 2.3445 -4.12378 10967
739 31.9032 20.2295 0.0131076 -4.12867 -2998.33
740 31.9029 22.245 3.50732 -4.12875 1460.02
743 32.7266 20.2306 2.34403 -4.12385 38612.7
742 33.535 22.2463 1.17521 -4.10082 9148.11
745 34.3879 20.2321 0.011737 -4.15792 13053.1
746 34.3875 22.2468 3.50596 -4.15789 -14114.9
749 35.2036 20.2326 2.34246 -4.09512 7505.68
748 35.9867 22.247 1.17298 -4.13583 -3780.93
632 40.6899 22.2161 3.49795 -3.24437 -37708.7
751 36.9036 20.2327 0.00903923 -3.99887 -5416.74
752 36.903 22.247 3.50365 -3.99904 -12341.6
754 38.4368 22.2465 1.17012 -3.24443 -20113.9
755 37.6136 20.2325 2.33921 -3.52062 -63869.4
634 42.2239 22.2192 1.164 -3.99888 1197.92
635 41.517 20.204 2.3288 -3.52059 -55081.9
638 43.1402 22.2206 3.4944 -4.13577 -23107.2
641 43.927 20.2075 2.32523 -4.09508 -13333.3
640 44.7394 22.2225 1.16103 -4.15788 -12867.7
644 45.592 22.2231 3.49153 -4.10084 -16182.8
646 47.2242 22.2237 1.15914 -4.12877 -35994.8
647 46.4042 20.2087 2.32318 -4.12386 -6420.59
650 48.057 22.2237 3.49017 -4.11626 -18758.8
653 48.879 20.2077 2.32246 -4.12381 -21668.1
652 49.7007 22.2234 1.15856 -4.12417 -52259.8
656 50.5272 22.2231 3.48985 -4.12023 -26509.6
658 52.174 22.2225 1.15877 -4.12269 -29341.1
659 51.3526 20.206 2.3229 -4.12316 -19792.6
662 52.9987 22.222 3.49032 -4.12177 -9057.41
790 1.41431 26.2562 1.16088 -4.1224 -12753.8
791 0.593421 24.2389 2.32573 -4.1227 4414.98
794 2.23852 26.2562 3.49236 -4.1222 -2349.83
797 3.06532 24.2386 2.3266 -4.12252 16531
796 3.8862 26.2563 1.16156 -4.12231 -21877.3
800 4.71005 26.2563 3.49305 -4.12239 -29292.4
802 6.35771 26.2565 1.16223 -4.12228 -34665.7
803 5.53691 24.2383 2.32771 -4.12244 -5288.68
806 7.18163 26.2568 3.49391 -4.12254 -24027.1
809 8.00777 24.2385 2.32887 -4.12225 6746.2
808 8.829 26.257 1.16321 -4.12243 -9436.03
812 9.65296 26.2574 3.49488 -4.12242 12592.1
814 11.3 26.2581 1.16461 -4.12245 -15724
815 10.4784 24.2393 2.33011 -4.12231 26285.5
818 12.1241 26.2584 3.49655 -4.12246 6796.97
820 13.771 26.2594 1.16659 -4.1225 8771.66
821 12.9493 24.2403 2.33178 -4.1223 12254.6
823 14.5967 24.2414 0.00172227 -4.12241 -856.739
824 14.5951 26.2599 3.49868 -4.12247 8562.59
826 16.2423 26.2612 1.16854 -4.12247 2288.88
827 15.4202 24.242 2.33357 -4.1223 4125.06
829 17.0674 24.2434 0.00320003 -4.12243 395.902
830 17.0661 26.2619 3.50024 -4.12244 -7970.58
832 18.7134 26.2635 1.16964 -4.12253 9276.36
833 17.8909 24.2442 2.33492 -4.12228 -21110.4
835 19.5383 24.246 0.00447884 -4.12231 10831.4
836 19.5374 26.2643 3.50128 -4.12226 5767.87
839 20.3617 24.2469 2.33619 -4.12244 13730.7
838 21.1849 26.266 1.1706 -4.1224 -13301.1
841 22.0092 24.249 0.00565725 -4.12233 10704.2
842 22.0087 26.267 3.5021 -4.1223 9845.26
845 22.833 24.2501 2.33739 -4.12259 23097.8
844 23.6564 26.2689 1.17133 -4.12221 8461.4
847 24.4809 24.2523 0.00696576 -4.12244 25642.1
848 24.4805 26.2698 3.50277 -4.12245 26085.5
850 26.128 26.2718 1.17165 -4.12174 12750.7
851 25.3049 24.2533 2.33856 -4.12265 -22754.1
853 26.953 24.2555 0.00775922 -4.12271 27974
854 26.9528 26.2726 3.50303 -4.12274 11770.8
856 28.5994 26.2744 1.17176 -4.12022 -670.623
857 27.7776 24.2565 2.33927 -4.12314 11119.7
859 29.4264 24.2586 0.00801291 -4.12424 1578.5
860 29.426 26.2752 3.50298 -4.12424 9501.59
862 31.0692 26.2765 1.17146 -4.1164 -8734.48
863 30.2513 24.2594 2.3394 -4.12376 -6749.05
865 31.9025 24.2608 0.00784703 -4.12878 39533.4
866 31.9021 26.277 3.50276 -4.12889 21127.3
869 32.7258 24.2612 2.33895 -4.12373 -124.837
868 33.5338 26.2769 1.17104 -4.10055 2562.64
871 34.3871 24.2618 0.00664259 -4.15795 6216.56
872 34.3867 26.2772 3.50175 -4.15804 12778.2
875 35.2025 24.2619 2.33743 -4.09491 36808.5
874 35.9853 26.2767 1.16917 -4.13552 20202.1
757 40.6868 24.2305 0.00228971 -3.2456 -38474.7
758 40.6838 26.2459 3.49996 -3.24655 -11356.2
877 36.9026 24.262 0.00437849 -3.9991 -16008.9
878 36.9023 26.277 3.49971 -3.99906 -2690.65
880 38.4353 26.2761 1.16617 -3.24671 -59234
881 37.6122 24.2616 2.33485 -3.52162 -41271
883 40.6809 28.2619 0.00360256 -3.24775 -31784.6
760 42.2167 26.2489 1.16675 -3.99912 14749.2
761 41.5105 24.2323 2.33232 -3.52156 -25514.6
764 43.1335 26.2503 3.49732 -4.13574 -7830.42
767 43.9203 24.2364 2.32917 -4.09506 2267.41
766 44.7324 26.2525 1.16411 -4.15801 4297.56
887 41.5039 28.2632 2.33416 -3.52232 -58963.9
889 43.1304 28.2656 0.00127979 -4.13572 8315.03
770 45.5854 26.2532 3.49467 -4.10085 -25381.4
772 47.2175 26.2546 1.16214 -4.12888 -33744.4
773 46.3973 24.2387 2.32698 -4.12372 -12212.1
776 48.0504 26.2549 3.49303 -4.11616 -5188.67
779 48.8722 24.2394 2.3258 -4.12375 10471.3
778 49.6941 26.2554 1.16107 -4.12423 -30420.3
782 50.5207 26.2557 3.49221 -4.12021 -991.074
784 52.1677 26.2559 1.16071 -4.12268 -13256.9
785 51.3463 24.2394 2.32541 -4.12318 -17949.8
788 52.9924 26.256 3.49208 -4.12178 -30998.1
916 1.40829 30.2902 1.16123 -4.12252 20400.9
917 0.587046 28.2729 2.3268 -4.12265 19886.3
920 2.23255 30.2904 3.49261 -4.12208 -5575.7
923 3.05933 28.2735 2.32702 -4.12255 21097.5
922 3.88054 30.2908 1.1615 -4.12226 11682.2
926 4.70443 30.2911 3.49295 -4.12238 -17625.1
928 6.35257 30.2916 1.16201 -4.12221 -16644.6
929 5.53143 28.274 2.32758 -4.12242 -10016.6
932 7.17666 30.292 3.49359 -4.12255 18660.6
935 8.00292 28.2747 2.32831 -4.12227 -1508.81
934 8.8245 30.2925 1.1629 -4.12244 -1354.52
938 9.64873 30.2929 3.4947 -4.12243 -3452.99
940 11.2962 30.2938 1.16448 -4.12245 27118.3
941 10.4744 28.2757 2.32954 -4.12229 -39365.6
944 12.1203 30.2943 3.49643 -4.12242 3574.04
946 13.7677 30.2954 1.16649 -4.12243 -21568.4
947 12.9457 28.277 2.33155 -4.12235 -8977.15
949 14.5935 28.2781 0.00165513 -4.1224 -28005.9
950 14.5918 30.2959 3.49845 -4.12239 -4069.22
952 16.2393 30.297 1.16815 -4.12248 -3960.19
953 15.4171 28.2786 2.33361 -4.12237 2595.55
955 17.0647 28.2798 0.00322571 -4.12237 -22200.8
956 17.0634 30.2975 3.49997 -4.12242 1750.41
958 18.7113 30.2988 1.16936 -4.12255 3094.5
959 17.8885 28.2806 2.3348 -4.12221 -6503.49
961 19.5362 28.282 0.00404201 -4.12226 2841.23
962 19.5352 30.2997 3.50096 -4.12227 20861.5
965 20.3599 28.2828 2.3356 -4.12247 2999.56
964 21.1832 30.3012 1.16997 -4.12239 5891.27
967 22.0079 28.2846 0.00467321 -4.12232 19632.2
968 22.0069 30.3021 3.50147 -4.12228 7442.71
971 22.8318 28.2855 2.33623 -4.12254 30747.4
970 23.6549 30.3037 1.16999 -4.12213 26949.9
973 24.4799 28.2872 0.00475249 -4.12245 8498.74
974 24.479 30.3046 3.50118 -4.12253 -4890.34
976 26.1266 30.3064 1.16932 -4.12181 6114.32
977 25.3039 28.2881 2.33602 -4.1227 -4318.11
979 26.9519 28.2898 0.00448789 -4.12275 -17843.4
980 26.9513 30.307 3.50024 -4.12272 -13347.2
982 28.5982 30.3085 1.16816 -4.12038 17728.8
983 27.7765 28.2905 2.33572 -4.12321 8940.7
985 29.4252 28.2919 0.00405776 -4.12418 11407.8
986 29.4244 30.3089 3.49913 -4.12413 -9154
988 31.0675 30.3096 1.167 -4.11622 18365.5
989 30.2502 28.2924 2.33525 -4.12383 -2101.25
991 31.9011 28.2933 0.003467 -4.12904 -16922.7
992 31.9001 30.31 3.49788 -4.12863 3844.51
995 32.7247 28.2932 2.33453 -4.12423 9394.82
994 33.5319 30.3103 1.16596 -4.10133 28438.6
997 34.3848 28.292 0.00350322 -4.15716 -26618.1
998 34.3834 30.3089 3.49708 -4.15839 -12780.8
1001 35.2015 28.2928 2.33375 -4.09568 -885.516
1000 35.9821 30.3087 1.16557 -4.13607 -5656.9
884 40.6785 30.2783 3.50141 -3.24877 -21423.9
1003 36.9001 28.2917 0.0017084 -3.99916 -16165.2
1004 36.8977 30.3049 3.49665 -3.99887 -17725.5
1006 38.432 30.3075 1.16247 -3.24913 -23371
1007 37.6116 28.2917 2.33141 -3.52199 -36323.7
1009 40.6764 32.2945 0.00528827 -3.25295 -39667.4
886 42.2109 30.2801 1.16847 -3.9992 15767
890 43.1278 30.2812 3.49917 -4.13574 -1916.86
893 43.9135 28.2667 2.33158 -4.09502 -9339.62
892 44.7264 30.2832 1.16614 -4.15809 -187.293
1013 41.4994 32.2955 2.33571 -3.52283 -33706.3
1015 43.1256 32.2973 0.0030212 -4.13576 -17640.8
1019 43.9087 32.2982 2.33332 -4.09502 -25775.6
896 45.5792 30.2841 3.49661 -4.10079 -2072.27
898 47.2113 30.2857 1.16392 -4.12891 -2298.71
899 46.3906 28.2693 2.32944 -4.12378 -21445.6
902 48.0441 30.2865 3.49475 -4.11615 -5616.27
905 48.8657 28.2711 2.3279 -4.12389 1275.39
1021 45.5766 32.3001 0.000422852 -4.10077 -6804.93
1025 46.3849 32.3009 2.33103 -4.12374 -816.009
1031 48.8597 32.3033 2.32925 -4.12382 8942.83
904 49.6876 30.2878 1.16258 -4.12415 -8026.03
908 50.5143 30.2882 3.49357 -4.12033 -8158.74
910 52.1614 30.2891 1.16174 -4.12273 -14970.1
911 51.3399 28.2722 2.32714 -4.12317 -6513.53
914 52.9863 30.2896 3.49274 -4.1218 -5983.65
1042 1.40274 34.3238 1.16127 -4.12247 2005.33
1043 0.581202 32.3066 2.32697 -4.12262 -2954.3
1046 2.22719 34.3242 3.49253 -4.12215 5733.97
1049 3.0537 32.3076 2.32689 -4.12263 -8984.44
1048 3.87543 34.325 1.16128 -4.12232 -5012.83
1169 0.57597 36.3398 2.32713 -4.12261 -27225.6
1175 3.04884 36.3412 2.32676 -4.12251 -16240.4
1052 4.69952 34.3251 3.49271 -4.12239 -7654.21
1054 6.34786 34.3257 1.16198 -4.12226 -26315.7
1055 5.52623 32.3085 2.32737 -4.12245 -34503.1
1058 7.17213 34.326 3.4936 -4.12251 -5009.97
1061 7.99834 32.3094 2.32827 -4.1222 -21042.1
1060 8.82015 34.3268 1.16314 -4.12238 -4733.37
1064 9.64446 34.3275 3.495 -4.12245 35031.3
1066 11.2924 34.3285 1.16468 -4.12241 -9159.52
1067 10.4703 32.3108 2.32963 -4.12234 3212.78
1070 12.1168 34.329 3.4966 -4.12246 3159.26
1072 13.7646 34.3301 1.16639 -4.12247 622.331
1073 12.9423 32.3124 2.33142 -4.12229 24590.7
1075 14.5905 32.3133 0.00124537 -4.12248 -21372.1
1076 14.5889 34.3304 3.49815 -4.12232 1007.69
1078 16.2369 34.3314 1.16785 -4.12247 -14143.6
1079 15.4142 32.3138 2.33318 -4.12227 -22614.2
1081 17.0624 32.3148 0.00275504 -4.12234 -313.877
1082 17.061 34.332 3.4998 -4.12239 19723.7
1084 18.7091 34.3333 1.16935 -4.12251 39223.2
1085 17.8862 32.3155 2.33461 -4.12232 -27560.2
1087 19.5343 32.3169 0.003963 -4.12225 -1689.2
1088 19.5331 34.3342 3.50102 -4.12232 12033.2
1091 20.358 32.3177 2.33543 -4.12245 7009.1
1090 21.1814 34.3358 1.16997 -4.1224 5672.43
1093 22.006 32.3194 0.00423512 -4.12228 1928.29
1094 22.0051 34.3366 3.5013 -4.12235 41141
1097 22.83 32.3202 2.33552 -4.1226 27726.7
1096 23.6533 34.3382 1.16938 -4.12208 22698.3
1099 24.4782 32.3219 0.00361486 -4.12253 10197
1100 24.4773 34.3391 3.50019 -4.1224 15793.3
1102 26.125 34.3406 1.16759 -4.12179 -5730.87
1103 25.3022 32.3227 2.3345 -4.1226 6393.1
1105 26.9506 32.3241 0.00207132 -4.12276 13458.6
1106 26.9494 34.3414 3.49832 -4.12271 7662.08
1108 28.5966 34.3425 1.16538 -4.12044 8854.55
1109 27.7748 32.3249 2.33288 -4.12306 21067.2
1111 29.4239 32.326 0.000264359 -4.12428 856.943
1112 29.4222 34.3432 3.49594 -4.12389 1302.16
1114 31.066 34.3435 1.16265 -4.11671 -6757.03
1115 30.248 32.3263 2.33101 -4.12391 1893.43
1118 31.8964 34.3438 3.49323 -4.13001 -1176.03
1121 32.7217 32.3274 2.32903 -4.12313 19804.8
1120 33.5306 34.345 1.16041 -4.09982 13898.1
1124 34.3796 34.3491 3.48883 -4.15787 -5055.61
1127 35.1963 32.3274 2.32882 -4.09688 -8840.99