ITEM: TIMESTEP
51
ITEM: NUMBER OF ATOMS
49200
ITEM: BOX BOUNDS ff ff pp
0.0000000000000000e+00 5.3225831169999999e+01
0.0000000000000000e+00 8.0759506000000002e+01
0.0000000000000000e+00 1.3987956760000000e+02
ITEM: ATOMS id x y z c_peratom
1 0.630372 0.284666 -0.112556 -2.45953
2 0.699803 2.10493 3.413 -2.92904
4 2.22884 2.11072 1.10787 -3.99588
5 1.49085 0.0690156 2.19688 -2.86783
7 3.09024 0.0994492 -0.0672177 -3.46156
8 3.13678 2.0924 3.4397 -4.12843
11 3.90066 0.0943614 2.279 -3.42059
10 4.73171 2.07579 1.1208 -4.15983
13 5.55708 0.0770123 -0.0409852 -3.43175
14 5.58299 2.06587 3.45927 -4.1166
16 7.21369 2.05536 1.13432 -4.13865
17 6.37645 0.0668581 2.29417 -3.43752
19 8.03148 0.0589063 -0.0307793 -3.43803
20 8.04679 2.04978 3.46857 -4.12661
22 9.69003 2.04306 1.14234 -4.13429
23 8.85373 0.0532681 2.30387 -3.44007
25 10.5076 0.047994 -0.0225039 -3.43938
26 10.5174 2.03971 3.47582 -4.13002
28 12.165 2.03504 1.14854 -4.13285
29 11.3317 0.0446223 2.31119 -3.4405
31 12.984 0.0409747 -0.0164541 -3.43992
32 12.9904 2.03304 3.48159 -4.13158
34 14.6398 2.03013 1.15349 -4.13245
35 13.809 0.0392097 2.31678 -3.44047
37 15.4604 0.0368868 -0.0114017 -3.44022
38 15.4648 2.02905 3.48631 -4.13207
41 16.2855 0.0358093 2.32145 -3.44047
40 17.1146 2.02694 1.15771 -4.13233
43 17.9367 0.0337467 -0.00703616 -3.44025
44 17.9394 2.02612 3.49039 -4.13235
46 19.5895 2.02466 1.16159 -4.13234
47 18.762 0.0331364 2.32563 -3.44031
49 20.4129 0.0320622 -0.00319609 -3.44034
50 20.4144 2.02429 3.49417 -4.13244
52 22.0645 2.02348 1.16498 -4.13236
53 21.238 0.0318075 2.32947 -3.44032
55 22.8892 0.0311824 0.00035668 -3.44025
56 22.8895 2.02336 3.49736 -4.13247
58 24.5397 2.02314 1.16763 -4.13239
59 23.7144 0.0311343 2.33264 -3.44016
61 25.3655 0.0312456 0.00273477 -3.44007
62 25.3648 2.0232 3.49967 -4.13242
64 27.0149 2.024 1.16948 -4.13244
65 26.1908 0.0316459 2.33467 -3.43997
67 27.8419 0.0327532 0.00449706 -3.44009
68 27.84 2.02472 3.50157 -4.1324
70 29.4901 2.02662 1.17192 -4.13244
71 28.6673 0.0335673 2.33672 -3.44022
73 30.3183 0.0355645 0.00755149 -3.44031
74 30.3151 2.02759 3.50427 -4.13238
76 31.9652 2.03006 1.17521 -4.13245
77 31.1437 0.0367689 2.33999 -3.4403
79 32.7943 0.03923 0.0113778 -3.44025
80 32.79 2.03139 3.50776 -4.1323
82 34.4401 2.0346 1.17895 -4.13236
83 33.6198 0.040823 2.34398 -3.4403
85 35.2707 0.0441919 0.0152572 -3.44035
86 35.2649 2.03635 3.5116 -4.13232
89 36.0962 0.0462496 2.34795 -3.44048
88 36.9147 2.04037 1.18284 -4.13206
91 37.7474 0.0502975 0.0196189 -3.44066
92 37.7398 2.04242 3.51555 -4.13244
94 39.3891 2.04738 1.18738 -4.13157
95 38.573 0.0525843 2.35239 -3.44045
97 40.2253 0.0580764 0.0246414 -3.44133
98 40.2146 2.05037 3.52048 -4.13286
100 41.8622 2.05705 1.19326 -4.13
101 41.0503 0.0609919 2.35806 -3.44053
103 42.7054 0.0691292 0.0315714 -3.44337
104 42.6896 2.06143 3.52687 -4.1343
106 44.3328 2.06999 1.20095 -4.12666
107 43.5283 0.0725566 2.36583 -3.4401
109 45.19 0.083469 0.0405716 -3.44684
110 45.166 2.07646 3.53536 -4.13862
112 46.7967 2.08868 1.21067 -4.11658
113 46.0055 0.0887847 2.37603 -3.43758
115 47.6853 0.10404 0.0543651 -3.46115
116 47.648 2.0995 3.5494 -4.15984
119 48.4812 0.11882 2.39176 -3.42061
118 49.2428 2.11773 1.23089 -4.12842
121 50.2051 0.175452 0.0767648 -3.27394
122 50.1508 2.13707 3.56294 -3.99592
124 51.6797 2.13271 1.25802 -2.92899
125 50.8911 0.0959942 2.47442 -2.86778
127 0.68943 4.15314 -0.0376828 -2.90648
128 0.70124 6.12705 3.45929 -2.90842
130 2.24055 6.12888 1.12565 -3.97887
131 1.52246 4.11889 2.27954 -3.43557
133 3.14691 4.11251 -0.0464445 -4.13961
134 3.1577 6.13032 3.45325 -4.12912
137 3.93236 4.10443 2.28767 -4.10223
136 4.75315 6.11296 1.1289 -4.15709
139 5.59463 4.08737 -0.0359785 -4.10301
140 5.60458 6.10665 3.46322 -4.10176
142 7.23328 6.09546 1.13799 -4.12831
143 6.40465 4.08119 2.29821 -4.12361
145 8.05741 4.07139 -0.0266014 -4.11688
146 8.06562 6.09103 3.4716 -4.11664
148 9.7065 6.08338 1.145 -4.12431
149 8.87596 4.06706 2.30721 -4.12309
151 10.5259 4.06039 -0.0195198 -4.12013
152 10.5326 6.08033 3.47832 -4.12034
154 12.1779 6.0751 1.15083 -4.12283
155 11.3481 4.05758 2.31372 -4.12271
157 12.9971 4.05327 -0.0139625 -4.12144
158 13.0025 6.07304 3.48382 -4.12169
160 14.6494 6.06952 1.15546 -4.12245
161 13.8209 4.05154 2.31896 -4.12236
163 15.4697 4.04884 -0.00959844 -4.12183
164 15.4736 6.06819 3.48809 -4.12214
167 16.294 4.04773 2.32296 -4.12221
166 17.1215 6.06599 1.15909 -4.12224
169 17.9427 4.04578 -0.00585184 -4.12207
170 17.9455 6.06507 3.49148 -4.12235
172 19.5937 6.06356 1.16227 -4.12221
173 18.7675 4.04505 2.32659 -4.12212
175 20.4165 4.0439 -0.00258714 -4.12216
176 20.418 6.06305 3.49455 -4.12256
178 22.0663 6.06221 1.16514 -4.12238
179 21.241 4.04345 2.32981 -4.12199
181 22.8903 4.04292 0.000355478 -4.12212
182 22.8907 6.06202 3.49726 -4.12249
184 24.539 6.06178 1.16732 -4.1224
185 23.7149 4.04273 2.33242 -4.12197
187 25.3642 4.04284 0.00249883 -4.12216
188 25.3637 6.06183 3.49928 -4.12247
190 27.0117 6.06263 1.16933 -4.12249
191 26.1888 4.04311 2.33447 -4.12197
193 27.8382 4.04437 0.00446957 -4.12208
194 27.8364 6.06336 3.50127 -4.12241
196 29.4846 6.0653 1.17123 -4.12248
197 28.6626 4.04512 2.33654 -4.12197
199 30.312 4.04727 0.00687 -4.12199
200 30.309 6.06639 3.50336 -4.12238
202 31.9571 6.06888 1.17393 -4.12255
203 31.1363 4.04839 2.33916 -4.12201
205 32.7854 4.05126 0.00986185 -4.12194
206 32.7814 6.07024 3.50616 -4.12223
208 34.4295 6.07355 1.17694 -4.12233
209 33.6098 4.05265 2.34233 -4.12212
211 35.2588 4.05623 0.0133152 -4.12194
212 35.2535 6.07538 3.5093 -4.12224
215 36.0832 4.05804 2.34589 -4.12218
214 36.9012 6.07949 1.18036 -4.12212
217 37.7316 4.06244 0.0170189 -4.12195
218 37.7253 6.08182 3.51296 -4.12244
220 39.3721 6.08737 1.18467 -4.12173
221 38.5562 4.06486 2.34978 -4.12236
223 40.2041 4.07067 0.0217969 -4.12228
224 40.1966 6.09041 3.51767 -4.1228
226 41.842 6.09761 1.19024 -4.12028
227 41.0289 4.07391 2.35501 -4.12271
229 42.6763 4.08189 0.028189 -4.12367
230 42.6681 6.10164 3.5236 -4.12429
232 44.3089 6.1111 1.19712 -4.11662
233 43.5011 4.08628 2.36171 -4.12308
235 45.1489 4.09711 0.036383 -4.12802
236 45.1413 6.11639 3.53078 -4.12831
238 46.7701 6.12933 1.20584 -4.10177
239 45.9724 4.10298 2.37106 -4.12359
241 47.6257 4.12133 0.0492478 -4.15599
242 47.6215 6.13658 3.54027 -4.15707
245 48.4447 4.12894 2.38209 -4.10224
244 49.217 6.15562 1.2161 -4.12913
247 50.1304 4.16567 0.0698754 -3.95871
248 50.1341 6.15513 3.54378 -3.97881
250 51.6734 6.15471 1.21011 -2.90842
251 50.8546 4.14596 2.39061 -3.43555
253 0.70119 8.13766 -0.0250512 -2.90633
254 0.702606 10.1431 3.47698 -2.90509
256 2.24003 10.1457 1.1412 -3.97691
257 1.52948 8.136 2.30152 -3.44309
259 3.15539 8.1334 -0.0321414 -4.13582
260 3.15559 10.1457 3.47152 -4.13482
263 3.94099 8.13424 2.29752 -4.09387
262 4.75585 10.1422 1.13873 -4.15644
265 5.6058 8.12205 -0.0296725 -4.10094
266 5.6065 10.1378 3.47136 -4.10107
268 7.23807 10.1315 1.14213 -4.12826
269 6.41541 8.11897 2.3031 -4.12423
271 8.06828 8.10979 -0.023648 -4.11699
272 8.06973 10.128 3.47519 -4.1167
274 9.71182 10.1221 1.14689 -4.12409
275 8.88672 8.10652 2.30953 -4.12358
277 10.5359 8.10009 -0.0179725 -4.12049
278 10.5377 10.1194 3.47983 -4.12043
280 12.1833 10.1147 1.15155 -4.12277
281 11.3577 8.09757 2.315 -4.12298
283 13.0056 8.09294 -0.0129616 -4.12179
284 13.0075 10.1127 3.48437 -4.12189
286 14.654 10.1092 1.1558 -4.12252
287 13.8287 8.09103 2.31985 -4.12262
289 15.4761 8.08801 -0.00870239 -4.12214
290 15.4778 10.1078 3.4883 -4.12218
293 16.2998 8.08674 2.32377 -4.12256
292 17.1248 10.1054 1.1592 -4.12236
295 17.9471 8.08468 -0.00533363 -4.12234
296 17.9483 10.1044 3.49158 -4.12236
298 19.5956 10.103 1.16241 -4.12226
299 18.7714 8.08381 2.32697 -4.12248
301 20.4189 8.08258 -0.00230347 -4.12258
302 20.4193 10.1023 3.49464 -4.1225
304 22.0667 10.1014 1.16497 -4.12236
305 21.2429 8.08211 2.32991 -4.12226
307 22.8908 8.08142 0.000205953 -4.12246
308 22.8905 10.1011 3.49704 -4.12242
310 24.5379 10.101 1.16701 -4.1224
311 23.7147 8.0813 2.33221 -4.12224
313 25.3628 8.08134 0.00211198 -4.12243
314 25.3618 10.1013 3.49906 -4.12243
316 27.0089 10.1022 1.1688 -4.12242
317 26.1866 8.08177 2.33409 -4.12231
319 27.8346 8.08293 0.00398138 -4.12241
320 27.8328 10.1028 3.5008 -4.12241
322 29.4801 10.1047 1.17064 -4.12247
323 28.6584 8.08385 2.33588 -4.12226
325 30.3063 8.08597 0.00588787 -4.12241
326 30.3038 10.1058 3.50266 -4.12236
328 31.9511 10.1084 1.17275 -4.12247
329 31.1299 8.08724 2.33807 -4.12222
331 32.7778 8.09003 0.00849125 -4.12219
332 32.7747 10.11 3.50493 -4.12227
334 34.4219 10.1131 1.17572 -4.12239
335 33.6012 8.09155 2.34087 -4.12248
337 35.249 8.09516 0.0116645 -4.12226
338 35.2455 10.1151 3.50811 -4.12236
341 36.0727 8.09725 2.34408 -4.12256
340 36.8923 10.1193 1.17934 -4.1222
343 37.72 8.10181 0.0154869 -4.12257
344 37.7161 10.1217 3.512 -4.1225
346 39.3626 10.1271 1.18364 -4.12186
347 38.5436 8.10445 2.34835 -4.12263
349 40.1908 8.11042 0.0201848 -4.12273
350 40.1869 10.13 3.51651 -4.12279
352 41.8324 10.1365 1.18839 -4.12043
353 41.0146 8.11377 2.35333 -4.123
355 42.6619 8.12115 0.0256208 -4.12411
356 42.6583 10.1401 3.52137 -4.12411
358 44.3005 10.1478 1.19335 -4.11669
359 43.4856 8.12553 2.35894 -4.12356
361 45.135 8.13481 0.0318567 -4.1283
362 45.1322 10.1522 3.52648 -4.12828
364 46.7638 10.1603 1.19749 -4.1011
365 45.957 8.14068 2.36568 -4.12418
367 47.616 8.15128 0.03785 -4.15782
368 47.6145 10.1656 3.53031 -4.15643
371 48.4314 8.15867 2.37157 -4.09383
370 49.2148 10.1709 1.1977 -4.13481
373 50.1305 8.16571 0.0391829 -3.97419
374 50.1305 10.1719 3.52807 -3.97691
376 51.6679 10.1709 1.19234 -2.90504
377 50.843 8.16286 2.36757 -3.44316
379 0.70148 12.1536 -0.0139471 -2.90456
380 0.699937 14.1643 3.48694 -2.90415
382 2.23578 14.1673 1.15201 -3.97661
383 1.52719 12.1548 2.31468 -3.44351
385 3.15373 12.1556 -0.0195277 -4.13557
386 3.15176 14.1674 3.48236 -4.13561
389 3.93782 12.1557 2.31012 -4.09503
388 4.75172 14.1673 1.14876 -4.15751
391 5.60548 12.1521 -0.0216932 -4.10053
392 5.60361 14.1657 3.47972 -4.10084
394 7.23579 14.1631 1.1486 -4.12854
395 6.41431 12.1501 2.31018 -4.12403
397 8.06946 12.1449 -0.0194492 -4.11649
398 8.06808 14.1611 3.48058 -4.11641
400 9.71104 14.1574 1.15072 -4.12414
401 8.88764 12.1425 2.31311 -4.12375
403 10.5379 12.1377 -0.0157698 -4.12036
404 10.5371 14.1556 3.48295 -4.12029
406 12.1833 14.1522 1.15346 -4.12267
407 11.3599 12.1357 2.31678 -4.12315
409 13.0081 12.1319 -0.0120178 -4.12187
410 13.0075 14.1506 3.48579 -4.12181
412 14.6543 14.1479 1.15652 -4.12248
413 13.8312 12.1303 2.32057 -4.12259
415 15.4784 12.1274 -0.00850962 -4.12218
416 15.478 14.1467 3.48891 -4.12221
419 16.3017 12.1262 2.32388 -4.12251
418 17.125 14.1447 1.15952 -4.12231
421 17.9486 12.1242 -0.00537957 -4.12235
422 17.9483 14.1438 3.49187 -4.12241
424 19.5953 14.1423 1.16243 -4.12229
425 18.7722 12.1233 2.32697 -4.12242
427 20.4193 12.1219 -0.00241596 -4.12247
428 20.419 14.1417 3.49463 -4.12251
430 22.0657 14.1408 1.16492 -4.12238
431 21.2428 12.1214 2.32973 -4.12229
433 22.89 12.1206 -3.333e-05 -4.12249
434 22.8893 14.1406 3.49703 -4.12248
436 24.536 14.1407 1.16709 -4.1224
437 23.7135 12.1205 2.33205 -4.12234
439 25.3609 12.1209 0.00199563 -4.12251
440 25.3598 14.1409 3.49893 -4.12249
442 27.0061 14.1419 1.16871 -4.12246
443 26.1842 12.1213 2.33391 -4.12225
445 27.8315 12.1226 0.00370976 -4.12244
446 27.8301 14.1426 3.50043 -4.1224
448 29.4765 14.1443 1.17026 -4.12246
449 28.6548 12.1233 2.33561 -4.12231
451 30.302 12.1256 0.00552608 -4.12232
452 30.3002 14.1455 3.50216 -4.12236
454 31.9469 14.148 1.17216 -4.12254
455 31.1255 12.1268 2.3375 -4.12232
457 32.7725 12.1297 0.00770795 -4.12229
458 32.7705 14.1495 3.50435 -4.12227
460 34.4175 14.1528 1.17491 -4.12242
461 33.5958 12.1313 2.34001 -4.1224
463 35.2428 12.1348 0.010738 -4.1224
464 35.2408 14.1546 3.50728 -4.12233
467 36.0663 12.1369 2.34329 -4.12253
466 36.8877 14.1584 1.17799 -4.12219
469 37.7134 12.1412 0.0143944 -4.12245
470 37.7114 14.1605 3.51047 -4.12245
472 39.3582 14.1649 1.18137 -4.1218
473 38.5368 12.1437 2.34702 -4.12258
475 40.1843 12.1488 0.0183578 -4.12273
476 40.1824 14.1675 3.51382 -4.12268
478 41.8284 14.1726 1.18476 -4.12033
479 41.0081 12.1518 2.3511 -4.12315
481 42.6562 12.158 0.0225173 -4.12424
482 42.6544 14.1755 3.51718 -4.1241
484 44.2974 14.1809 1.18756 -4.11636
485 43.4803 12.1614 2.35521 -4.12376
487 45.1309 12.1681 0.0261696 -4.12846
488 45.1297 14.1837 3.51964 -4.12855
490 46.7619 14.1882 1.18874 -4.10083
491 45.9537 12.1717 2.35849 -4.12405
493 47.6146 12.1775 0.0275454 -4.15756
494 47.6138 14.1908 3.5199 -4.15752
497 48.4304 12.18 2.35895 -4.09504
496 49.2139 14.1927 1.18652 -4.13561
499 50.1305 12.1825 0.0250614 -3.97628
500 50.1298 14.1937 3.51699 -3.97663
502 51.6656 14.1925 1.1822 -2.90401
503 50.8411 12.1819 2.35474 -3.44349
505 0.697756 16.1763 -0.00621627 -2.90383
506 0.695451 18.189 3.49375 -2.90373
508 2.2302 18.192 1.15927 -3.97661
509 1.52248 16.178 2.3231 -3.44348
511 3.1492 16.1799 -0.0106982 -4.13571
512 3.14659 18.1928 3.48947 -4.13566
515 3.9329 16.1804 2.31913 -4.09519
514 4.74611 18.1942 1.15602 -4.15783
517 5.60138 16.1799 -0.0135571 -4.10078
518 5.59857 18.194 3.48665 -4.10082
520 7.23086 18.1934 1.15468 -4.12866
521 6.41014 16.1793 2.31752 -4.12393
523 8.06608 16.177 -0.0135903 -4.11629
524 8.06344 18.1927 3.48599 -4.11622
526 9.70686 18.191 1.15498 -4.12405
527 8.88456 16.1757 2.31808 -4.1238
529 10.5355 16.173 -0.0122238 -4.12029
530 10.5332 18.19 3.48659 -4.12034
532 12.1796 18.188 1.15619 -4.1227
533 11.3576 16.1716 2.31971 -4.1231
535 13.0061 16.1691 -0.0102359 -4.12181
536 13.0041 18.1871 3.48803 -4.12178
538 14.6512 18.1853 1.15801 -4.12246
539 13.8293 16.168 2.322 -4.12268
541 15.4769 16.1659 -0.00757472 -4.1222
542 15.4752 18.1846 3.4901 -4.12218
545 16.3005 16.1649 2.32462 -4.1226
544 17.1226 18.183 1.1603 -4.12227
547 17.9474 16.1633 -0.00485251 -4.12243
548 17.946 18.1825 3.4924 -4.12243
550 19.5932 18.1813 1.16251 -4.12227
551 18.7713 16.1625 2.32737 -4.12244
553 20.4183 16.1614 -0.00232271 -4.12254
554 20.4168 18.181 3.49454 -4.12256
556 22.0636 18.1806 1.16451 -4.12242
557 21.2416 16.1609 2.32983 -4.12227
559 22.8884 16.1605 -0.000141176 -4.12242
560 22.8871 18.1807 3.49638 -4.12244
562 24.5334 18.181 1.16628 -4.12242
563 23.7116 16.1605 2.33181 -4.1223
565 25.3585 16.1609 0.00169535 -4.12241
566 25.3572 18.1813 3.49818 -4.12241
568 27.0032 18.1822 1.16799 -4.12243
569 26.1816 16.1614 2.33352 -4.12224
571 27.8282 16.1626 0.00315641 -4.12236
572 27.827 18.1828 3.49985 -4.12243
574 29.4734 18.1844 1.1697 -4.12245
575 28.6516 16.1634 2.33498 -4.12227
577 30.2983 16.1654 0.00477758 -4.12243
578 30.297 18.1853 3.50157 -4.12244
580 31.9437 18.1874 1.17155 -4.12256
581 31.1216 16.1666 2.3367 -4.12226
583 32.7687 16.1693 0.00693974 -4.12231
584 32.7674 18.1887 3.50357 -4.12225
586 34.4145 18.1916 1.1735 -4.12239
587 33.592 16.1708 2.33904 -4.12248
589 35.2391 16.174 0.00950438 -4.1223
590 35.2379 18.193 3.50557 -4.12227
593 36.0627 16.1757 2.34168 -4.12256
592 36.8851 18.1963 1.17571 -4.12218
595 37.71 16.1794 0.0122912 -4.12243
596 37.7092 18.198 3.50788 -4.12247
598 39.356 18.2017 1.17827 -4.12181
599 38.5337 16.1814 2.3445 -4.1227
601 40.1812 16.1857 0.0151618 -4.1227
602 40.1804 18.2035 3.51035 -4.12271
604 41.8268 18.2073 1.1805 -4.12032
605 41.0054 16.1879 2.34742 -4.1231
607 42.6534 16.1926 0.0176567 -4.12408
608 42.6531 18.2094 3.51231 -4.12412
610 44.2964 18.2127 1.18157 -4.11623
611 43.4782 16.1948 2.34964 -4.12384
613 45.1291 16.1991 0.0190852 -4.12856
614 45.129 18.2143 3.5129 -4.12863
616 46.7612 18.2167 1.18107 -4.10075
617 45.9526 16.201 2.35048 -4.12394
619 47.6135 16.2041 0.0184396 -4.15776
620 47.6136 18.2178 3.51182 -4.15789
623 48.4298 16.205 2.34913 -4.09517
622 49.213 18.2186 1.17856 -4.13562
625 50.1295 16.2061 0.015639 -3.97657
626 50.1296 18.2191 3.50881 -3.97661
628 51.6639 18.2182 1.17465 -2.90359
629 50.8401 16.2055 2.34545 -3.44351
631 0.692829 20.2023 -0.000993431 -2.90354
632 0.689873 22.2161 3.49795 -2.9033
634 2.22392 22.2192 1.164 -3.97666
635 1.51696 20.204 2.3288 -3.44354
637 3.14354 20.2065 -0.00474082 -4.13572
638 3.14025 22.2206 3.4944 -4.13577
641 3.92701 20.2075 2.32523 -4.09508
640 4.73943 22.2225 1.16103 -4.15788
643 5.59536 20.2084 -0.00768557 -4.10082
644 5.59204 22.2231 3.49153 -4.10084
646 7.22422 22.2237 1.15914 -4.12877
647 6.40417 20.2087 2.32318 -4.12386
649 8.06037 20.2081 -0.00877763 -4.11624
650 8.05702 22.2237 3.49017 -4.11626
652 9.70069 22.2234 1.15856 -4.12417
653 8.87901 20.2077 2.32246 -4.12381
655 10.5303 20.2066 -0.00863558 -4.1203
656 10.5272 22.2231 3.48985 -4.12023
658 12.174 22.2225 1.15877 -4.12269
659 11.3526 20.206 2.3229 -4.12316
661 13.0017 20.2047 -0.00768806 -4.12183
662 12.9987 22.222 3.49032 -4.12177
664 14.6463 22.2213 1.15962 -4.12243
665 13.8251 20.204 2.32409 -4.12264
667 15.473 20.2028 -0.00613609 -4.12218
668 15.4704 22.2209 3.49141 -4.1222
671 16.2968 20.2023 2.32576 -4.12254
670 17.118 22.2203 1.16102 -4.12232
673 17.9441 20.2012 -0.00431376 -4.12242
674 17.9416 22.22 3.49282 -4.1224
676 19.5889 22.2197 1.16246 -4.1223
677 18.768 20.2009 2.32761 -4.1224
679 20.415 20.2003 -0.00259827 -4.12252
680 20.4126 22.2197 3.4943 -4.12253
682 22.0596 22.2198 1.16389 -4.12241
683 21.2385 20.2003 2.32928 -4.12227
685 22.8853 20.2004 -0.000953796 -4.12244
686 22.8831 22.2199 3.49575 -4.12244
688 24.53 22.2206 1.16537 -4.12245
689 23.7084 20.2005 2.3309 -4.12229
691 25.3556 20.2012 0.000734686 -4.12244
692 25.3537 22.221 3.49729 -4.1224
694 27.0003 22.2218 1.16719 -4.12239
695 26.1788 20.2017 2.33267 -4.12236
697 27.8256 20.2026 0.00260451 -4.12242
698 27.8241 22.2224 3.49913 -4.12241
700 29.4709 22.2237 1.16881 -4.12237
701 28.6492 20.2033 2.3345 -4.12234
703 30.2958 20.2049 0.00429618 -4.12246
704 30.2943 22.2245 3.5006 -4.12242
706 31.9413 22.2262 1.17023 -4.12252
707 31.1191 20.2058 2.33621 -4.12224
709 32.7662 20.208 0.00589999 -4.12228
710 32.765 22.2272 3.50204 -4.12228
712 34.4122 22.2293 1.17164 -4.12241
713 33.5895 20.2092 2.33778 -4.12238
715 35.2368 20.2118 0.00753564 -4.12228
716 35.2357 22.2305 3.50345 -4.12233
719 36.0605 20.2132 2.33949 -4.12256
718 36.8832 22.233 1.1732 -4.12222
721 37.7083 20.2163 0.00955667 -4.12245
722 37.7073 22.2344 3.50516 -4.1225
724 39.3548 22.237 1.17484 -4.1218
725 38.532 20.2179 2.34159 -4.12264
727 40.18 20.2211 0.0116411 -4.12272
728 40.1794 22.2384 3.50665 -4.12268
730 41.8261 22.2409 1.17589 -4.12027
731 41.0043 20.2226 2.34346 -4.12319
733 42.6531 20.2257 0.0128883 -4.12411
734 42.6526 22.2421 3.50737 -4.12417
736 44.2961 22.2442 1.17607 -4.11628
737 43.4778 20.2271 2.3445 -4.12378
739 45.129 20.2295 0.0131076 -4.12867
740 45.1287 22.245 3.50732 -4.12875
742 46.7608 22.2463 1.17521 -4.10082
743 45.9525 20.2306 2.34403 -4.12385
745 47.6137 20.2321 0.011737 -4.15792
746 47.6133 22.2468 3.50596 -4.15789
749 48.4294 20.2326 2.34246 -4.09512
748 49.2125 22.247 1.17298 -4.13583
751 50.1294 20.2327 0.00903923 -3.97668
752 50.1288 22.247 3.50365 -3.97681
754 51.6626 22.2465 1.17012 -2.90315
755 50.8395 20.2325 2.33921 -3.4435
757 0.686838 24.2305 0.00228971 -2.90309
758 0.683803 26.2459 3.49996 -2.9029
760 2.21672 26.2489 1.16675 -3.97682
761 1.51055 24.2323 2.33232 -3.44364
763 3.13686 24.2353 -0.000890611 -4.13576
764 3.13349 26.2503 3.49732 -4.13574
767 3.9203 24.2364 2.32917 -4.09506
766 4.73242 26.2525 1.16411 -4.15801
769 5.58874 24.2381 -0.00367489 -4.10089
770 5.58536 26.2532 3.49467 -4.10085
772 7.21753 26.2546 1.16214 -4.12888
773 6.39733 24.2387 2.32698 -4.12372
775 8.05369 24.2393 -0.00516788 -4.11622
776 8.05041 26.2549 3.49303 -4.11616
778 9.69414 26.2554 1.16107 -4.12423
779 8.87219 24.2394 2.3258 -4.12375
781 10.524 24.2394 -0.00586869 -4.12016
782 10.5207 26.2557 3.49221 -4.12021
784 12.1677 26.2559 1.16071 -4.12268
785 11.3463 24.2394 2.32541 -4.12318
787 12.9956 24.2391 -0.00578455 -4.12175
788 12.9924 26.256 3.49208 -4.12178
790 14.6401 26.2562 1.16088 -4.1224
791 13.8193 24.2389 2.32573 -4.1227
793 15.4674 24.2388 -0.00506269 -4.12221
794 15.4644 26.2562 3.49236 -4.1222
797 16.2912 24.2386 2.3266 -4.12252
796 17.112 26.2563 1.16156 -4.12231
799 17.9387 24.2384 -0.00404376 -4.1224
800 17.9359 26.2563 3.49305 -4.12239
802 19.5835 26.2565 1.16223 -4.12228
803 18.7627 24.2383 2.32771 -4.12244
805 20.41 24.2385 -0.00285338 -4.12256
806 20.4075 26.2568 3.49391 -4.12254
808 22.0548 26.257 1.16321 -4.12243
809 21.2336 24.2385 2.32887 -4.12225
811 22.8809 24.2389 -0.00173622 -4.12244
812 22.8788 26.2574 3.49488 -4.12242
814 24.5259 26.2581 1.16461 -4.12245
815 23.7043 24.2393 2.33011 -4.12231
817 25.3519 24.24 -0.000182283 -4.1224
818 25.3499 26.2584 3.49655 -4.12246
820 26.9969 26.2594 1.16659 -4.1225
821 26.1752 24.2403 2.33178 -4.1223
823 27.8225 24.2414 0.00172227 -4.12241
824 27.821 26.2599 3.49868 -4.12247
826 29.4681 26.2612 1.16854 -4.12247
827 28.646 24.242 2.33357 -4.1223
829 30.2932 24.2434 0.00320003 -4.12243
830 30.2919 26.2619 3.50024 -4.12244
832 31.9393 26.2635 1.16964 -4.12253
833 31.1167 24.2442 2.33492 -4.12228
835 32.7641 24.246 0.00447884 -4.12231
836 32.7632 26.2643 3.50128 -4.12226
838 34.4108 26.266 1.1706 -4.1224
839 33.5875 24.2469 2.33619 -4.12244
841 35.235 24.249 0.00565725 -4.12233
842 35.2345 26.267 3.5021 -4.1223
845 36.0588 24.2501 2.33739 -4.12259
844 36.8822 26.2689 1.17133 -4.12221
847 37.7067 24.2523 0.00696576 -4.12244
848 37.7063 26.2698 3.50277 -4.12245
850 39.3538 26.2718 1.17165 -4.12174
851 38.5307 24.2533 2.33856 -4.12265
853 40.1789 24.2555 0.00775922 -4.12271
854 40.1786 26.2726 3.50303 -4.12274
856 41.8252 26.2744 1.17176 -4.12022
857 41.0034 24.2565 2.33927 -4.12314
859 42.6522 24.2586 0.00801291 -4.12424
860 42.6518 26.2752 3.50298 -4.12424
862 44.295 26.2765 1.17146 -4.1164
863 43.4772 24.2594 2.3394 -4.12376
865 45.1283 24.2608 0.00784703 -4.12878
866 45.128 26.277 3.50276 -4.12889
868 46.7596 26.2769 1.17104 -4.10055
869 45.9516 24.2612 2.33895 -4.12373
871 47.6129 24.2618 0.00664259 -4.15795
872 47.6126 26.2772 3.50175 -4.15804
875 48.4284 24.2619 2.33743 -4.09491
874 49.2112 26.2767 1.16917 -4.13552
877 50.1284 24.262 0.00437849 -3.97684
878 50.1281 26.277 3.49971 -3.97677
880 51.6611 26.2761 1.16617 -2.90289
881 50.8381 24.2616 2.33485 -3.44371
883 0.680938 28.2619 0.00360256 -2.90277
884 0.67846 30.2783 3.50141 -2.90268
886 2.21092 30.2801 1.16847 -3.97688
887 1.50389 28.2632 2.33416 -3.44358
889 3.13041 28.2656 0.00127979 -4.13572
890 3.12778 30.2812 3.49917 -4.13574
893 3.91354 28.2667 2.33158 -4.09502
892 4.72641 30.2832 1.16614 -4.15809
895 5.58216 28.2685 -0.00124233 -4.10079
896 5.5792 30.2841 3.49661 -4.10079
898 7.21127 30.2857 1.16392 -4.12891
899 6.39062 28.2693 2.32944 -4.12378
901 8.04712 28.2705 -0.00298771 -4.11614
902 8.04406 30.2865 3.49475 -4.11615
904 9.68764 30.2878 1.16258 -4.12415
905 8.86569 28.2711 2.3279 -4.12389
907 10.5175 28.2719 -0.00401025 -4.12028
908 10.5143 30.2882 3.49357 -4.12033
910 12.1614 30.2891 1.16174 -4.12273
911 11.3399 28.2722 2.32714 -4.12317
913 12.9892 28.2727 -0.0044539 -4.12179
914 12.9863 30.2896 3.49274 -4.1218
916 14.6341 30.2902 1.16123 -4.12252
917 13.8129 28.2729 2.3268 -4.12265
919 15.4613 28.2733 -0.00439541 -4.12216
920 15.4584 30.2904 3.49261 -4.12208
923 16.2852 28.2735 2.32702 -4.12255
922 17.1064 30.2908 1.1615 -4.12226
925 17.9331 28.2737 -0.00395581 -4.12239
926 17.9303 30.2911 3.49295 -4.12238
928 19.5784 30.2916 1.16201 -4.12221
929 18.7573 28.274 2.32758 -4.12242
931 20.4049 28.2744 -0.00329125 -4.12253
932 20.4025 30.292 3.49359 -4.12255
934 22.0503 30.2925 1.1629 -4.12244
935 21.2288 28.2747 2.32831 -4.12227
937 22.8767 28.2753 -0.00228062 -4.12248
938 22.8746 30.2929 3.4947 -4.12243
940 24.522 30.2938 1.16448 -4.12245
941 23.7002 28.2757 2.32954 -4.12229
943 25.3481 28.2765 -0.000510508 -4.12244
944 25.3461 30.2943 3.49643 -4.12242
946 26.9936 30.2954 1.16649 -4.12243
947 26.1716 28.277 2.33155 -4.12235
949 27.8193 28.2781 0.00165513 -4.1224
950 27.8176 30.2959 3.49845 -4.12239
952 29.4652 30.297 1.16815 -4.12248
953 28.6429 28.2786 2.33361 -4.12237
955 30.2905 28.2798 0.00322571 -4.12237
956 30.2892 30.2975 3.49997 -4.12242
958 31.9371 30.2988 1.16936 -4.12255
959 31.1143 28.2806 2.3348 -4.12221
961 32.7621 28.282 0.00404201 -4.12226
962 32.761 30.2997 3.50096 -4.12227
964 34.4091 30.3012 1.16997 -4.12239
965 33.5857 28.2828 2.3356 -4.12247
967 35.2337 28.2846 0.00467321 -4.12232
968 35.2328 30.3021 3.50147 -4.12228
971 36.0576 28.2855 2.33623 -4.12254
970 36.8807 30.3037 1.16999 -4.12213
973 37.7058 28.2872 0.00475249 -4.12245
974 37.7049 30.3046 3.50118 -4.12253
976 39.3524 30.3064 1.16932 -4.12181
977 38.5297 28.2881 2.33602 -4.1227
979 40.1778 28.2898 0.00448789 -4.12275
980 40.1771 30.307 3.50024 -4.12272
982 41.824 30.3085 1.16816 -4.12038
983 41.0024 28.2905 2.33572 -4.12321
985 42.651 28.2919 0.00405776 -4.12418
986 42.6503 30.3089 3.49913 -4.12413
988 44.2934 30.3096 1.167 -4.11622
989 43.4761 28.2924 2.33525 -4.12383
991 45.1269 28.2933 0.003467 -4.12904
992 45.1259 30.31 3.49788 -4.12863
994 46.7577 30.3103 1.16596 -4.10133
995 45.9505 28.2932 2.33453 -4.12423
997 47.6107 28.292 0.00350322 -4.15716
998 47.6092 30.3089 3.49708 -4.15839
1001 48.4273 28.2928 2.33375 -4.09568
1000 49.2079 30.3087 1.16557 -4.13607
1003 50.1259 28.2917 0.0017084 -3.97685
1004 50.1235 30.3049 3.49665 -3.97657
1006 51.6578 30.3075 1.16247 -2.90417
1007 50.8374 28.2917 2.33141 -3.44318
1009 0.676442 32.2945 0.00528827 -2.90271
1010 0.674544 34.3107 3.50286 -2.9027
1012 2.20654 34.3126 1.16996 -3.97686
1013 1.4994 32.2955 2.33571 -3.44358
1015 3.12561 32.2973 0.0030212 -4.13576
1016 3.12337 34.3136 3.50054 -4.13568
1019 3.90873 32.2982 2.33332 -4.09502
1018 4.72125 34.3154 1.16755 -4.15812
1021 5.57656 32.3001 0.000422852 -4.10077
1022 5.57395 34.3162 3.49796 -4.10083
1024 7.20558 34.3179 1.1652 -4.12897
1025 6.38492 32.3009 2.33103 -4.12374
1027 8.04113 32.3026 -0.00155674 -4.11616
1028 8.03839 34.3188 3.49589 -4.11615
1030 9.68196 34.3203 1.16339 -4.12417
1031 8.85969 32.3033 2.32925 -4.12382
1033 10.5113 32.3046 -0.00302857 -4.12027
1034 10.5086 34.321 3.49422 -4.12026
1036 12.1556 34.3222 1.16206 -4.1227
1037 11.3338 32.3052 2.32793 -4.12314
1039 12.9833 32.3061 -0.00404707 -4.12177
1040 12.9805 34.3228 3.49304 -4.12182
1042 14.6286 34.3238 1.16127 -4.12247
1043 13.807 32.3066 2.32697 -4.12262
1045 15.4555 32.3074 -0.00443223 -4.12212
1046 15.453 34.3242 3.49253 -4.12215
1049 16.2795 32.3076 2.32689 -4.12263
1048 17.1013 34.325 1.16128 -4.12232
1051 17.9276 32.3082 -0.00417746 -4.12241
1052 17.9254 34.3251 3.49271 -4.12239
1054 19.5737 34.3257 1.16198 -4.12226
1055 18.7521 32.3085 2.32737 -4.12245
1057 20.4001 32.309 -0.00339661 -4.12257
1058 20.398 34.326 3.4936 -4.12251
1060 22.046 34.3268 1.16314 -4.12238
1061 21.2242 32.3094 2.32827 -4.1222
1063 22.8724 32.3103 -0.00223689 -4.12245
1064 22.8703 34.3275 3.495 -4.12245
1066 24.5182 34.3285 1.16468 -4.12241
1067 23.6962 32.3108 2.32963 -4.12234
1069 25.3444 32.3119 -0.000467782 -4.12247
1070 25.3427 34.329 3.4966 -4.12246
1072 26.9904 34.3301 1.16639 -4.12247
1073 26.1681 32.3124 2.33142 -4.12229
1075 27.8164 32.3133 0.00124537 -4.12248
1076 27.8148 34.3304 3.49815 -4.12232
1078 29.4627 34.3314 1.16785 -4.12247
1079 28.64 32.3138 2.33318 -4.12227
1081 30.2882 32.3148 0.00275504 -4.12234
1082 30.2869 34.332 3.4998 -4.12239
1084 31.9349 34.3333 1.16935 -4.12251
1085 31.112 32.3155 2.33461 -4.12232
1087 32.7601 32.3169 0.003963 -4.12225
1088 32.7589 34.3342 3.50102 -4.12232
1090 34.4072 34.3358 1.16997 -4.1224
1091 33.5838 32.3177 2.33543 -4.12245
1093 35.2318 32.3194 0.00423512 -4.12228
1094 35.2309 34.3366 3.5013 -4.12235
1097 36.0559 32.3202 2.33552 -4.1226
1096 36.8791 34.3382 1.16938 -4.12208
1099 37.7041 32.3219 0.00361486 -4.12253
1100 37.7031 34.3391 3.50019 -4.1224
1102 39.3509 34.3406 1.16759 -4.12179
1103 38.528 32.3227 2.3345 -4.1226
1105 40.1764 32.3241 0.00207132 -4.12276
1106 40.1752 34.3414 3.49832 -4.12271
1108 41.8224 34.3425 1.16538 -4.12044
1109 41.0007 32.3249 2.33288 -4.12306
1111 42.6498 32.326 0.000264359 -4.12428
1112 42.648 34.3432 3.49594 -4.12389
1114 44.2918 34.3435 1.16265 -4.11671
1115 43.4738 32.3263 2.33101 -4.12391
1117 45.1253 32.3269 -0.00165483 -4.1282
1118 45.1222 34.3438 3.49323 -4.13001
1120 46.7564 34.345 1.16041 -4.09982
1121 45.9476 32.3274 2.32903 -4.12313
1123 47.609 32.3277 -0.0032124 -4.1585
1124 47.6054 34.3491 3.48883 -4.15787
1127 48.4222 32.3274 2.32882 -4.09688
1126 49.2057 34.3438 1.15805 -4.14008
1129 50.1211 32.3239 -0.00426434 -3.98052
1130 50.1083 34.3244 3.50341 -3.95583
1132 51.6568 34.3152 1.14857 -2.90555
1133 50.8297 32.3186 2.32936 -3.44675
1135 0.672349 36.3272 0.00612638 -2.9026
1136 0.670119 38.344 3.50301 -2.90256
1138 2.20193 38.3457 1.17017 -3.97688
1139 1.49493 36.3283 2.33673 -3.44364
1141 3.12103 36.3302 0.00386831 -4.13565
1142 3.11864 38.3467 3.50071 -4.13559
1145 3.90404 36.3311 2.33419 -4.09504
1144 4.71634 38.3485 1.1677 -4.15805
1147 5.57158 36.3328 0.00120923 -4.10085
1148 5.56916 38.3493 3.49807 -4.10088
1150 7.20056 38.351 1.16533 -4.12902
1151 6.37978 36.3336 2.33179 -4.12372
1153 8.03569 36.3353 -0.000947164 -4.11612
1154 8.03326 38.3519 3.49607 -4.11616
1156 9.67673 38.3533 1.16348 -4.12416
1157 8.85429 36.3361 2.32984 -4.12384
1159 10.5058 36.3375 -0.00264969 -4.12031
1160 10.5034 38.3539 3.4943 -4.1203
1162 12.1506 38.3552 1.16213 -4.12276
1163 11.3283 36.3382 2.32826 -4.12312
1165 12.978 36.3393 -0.00383476 -4.1218
1166 12.9756 38.3557 3.49315 -4.12182
1168 14.6241 38.3569 1.16131 -4.12247
1169 13.8018 36.3398 2.32713 -4.12261
1171 15.4506 36.3408 -0.00451496 -4.12215
1172 15.4485 38.3573 3.49241 -4.12212
1175 16.2747 36.3412 2.32676 -4.12251
1174 17.0969 38.3584 1.16106 -4.12235
1177 17.9231 36.3419 -0.00440833 -4.12232
1178 17.9212 38.3588 3.49255 -4.12236
1180 19.5696 38.3595 1.16186 -4.12222
1181 18.7476 36.3423 2.32723 -4.12249
1183 20.3958 36.3431 -0.00331613 -4.1225
1184 20.394 38.36 3.49367 -4.12259
1186 22.0423 38.3608 1.16347 -4.12238
1187 21.2201 36.3434 2.32842 -4.12232